LAMMPS Description

730 atoms
3 atom types
-48.42730 13.51500 xlo xhi
-8.51501 8.51501 ylo yhi
-6.02102 6.02102 zlo zhi


Atoms

1 1 -8.515008 -8.515008 -6.021020
2 1 -8.515008 -8.515008 -3.010510
3 1 -8.515008 -8.515008 0.000000
4 1 -8.515008 -8.515008 3.010510
5 1 -8.515008 -8.515008 6.021020
6 1 -8.515008 -4.257504 -6.021020
7 1 -8.515008 -4.257504 -3.010510
8 1 -8.515008 -4.257504 0.000000
9 1 -8.515008 -4.257504 3.010510
10 1 -8.515008 -4.257504 6.021020
11 1 -8.515008 -0.000000 -6.021020
12 1 -8.515008 -0.000000 -3.010510
13 1 -8.515008 0.000000 0.000000
14 1 -8.515008 0.000000 3.010510
15 1 -8.515008 0.000000 6.021020
16 1 -8.515008 4.257504 -6.021020
17 1 -8.515008 4.257504 -3.010510
18 1 -8.515008 4.257504 0.000000
19 1 -8.515008 4.257504 3.010510
20 1 -8.515008 4.257504 6.021020
21 1 -8.515008 8.515008 -6.021020
22 1 -8.515008 8.515008 -3.010510
23 1 -8.515008 8.515008 0.000000
24 1 -8.515008 8.515008 3.010510
25 1 -8.515008 8.515008 6.021020
26 1 -4.257504 -8.515008 -6.021020
27 1 -4.257504 -8.515008 -3.010510
28 1 -4.257504 -8.515008 0.000000
29 1 -4.257504 -8.515008 3.010510
30 1 -4.257504 -8.515008 6.021020
31 1 -4.257504 -4.257504 -6.021020
32 1 -4.257504 -4.257504 -3.010510
33 1 -4.257504 -4.257504 0.000000
34 1 -4.257504 -4.257504 3.010510
35 1 -4.257504 -4.257504 6.021020
36 1 -4.257504 -0.000000 -6.021020
37 1 -4.257504 -0.000000 -3.010510
38 1 -4.257504 0.000000 0.000000
39 1 -4.257504 0.000000 3.010510
40 1 -4.257504 0.000000 6.021020
41 1 -4.257504 4.257504 -6.021020
42 1 -4.257504 4.257504 -3.010510
43 1 -4.257504 4.257504 0.000000
44 1 -4.257504 4.257504 3.010510
45 1 -4.257504 4.257504 6.021020
46 1 -4.257504 8.515008 -6.021020
47 1 -4.257504 8.515008 -3.010510
48 1 -4.257504 8.515008 0.000000
49 1 -4.257504 8.515008 3.010510
50 1 -4.257504 8.515008 6.021020
51 1 -0.000000 -8.515008 -6.021020
52 1 -0.000000 -8.515008 -3.010510
53 1 -0.000000 -8.515008 0.000000
54 1 -0.000000 -8.515008 3.010510
55 1 -0.000000 -8.515008 6.021020
56 1 -0.000000 -4.257504 -6.021020
57 1 -0.000000 -4.257504 -3.010510
58 1 -0.000000 -4.257504 0.000000
59 1 -0.000000 -4.257504 3.010510
60 1 0.000000 -4.257504 6.021020
61 1 -0.000000 -0.000000 -6.021020
62 1 -0.000000 -0.000000 -3.010510
63 1 0.000000 0.000000 0.000000
64 1 0.000000 0.000000 3.010510
65 1 0.000000 0.000000 6.021020
66 1 -0.000000 4.257504 -6.021020
67 1 0.000000 4.257504 -3.010510
68 1 0.000000 4.257504 0.000000
69 1 0.000000 4.257504 3.010510
70 1 0.000000 4.257504 6.021020
71 1 0.000000 8.515008 -6.021020
72 1 0.000000 8.515008 -3.010510
73 1 0.000000 8.515008 0.000000
74 1 0.000000 8.515008 3.010510
75 1 0.000000 8.515008 6.021020
76 1 4.257504 -8.515008 -6.021020
77 1 4.257504 -8.515008 -3.010510
78 1 4.257504 -8.515008 0.000000
79 1 4.257504 -8.515008 3.010510
80 1 4.257504 -8.515008 6.021020
81 1 4.257504 -4.257504 -6.021020
82 1 4.257504 -4.257504 -3.010510
83 1 4.257504 -4.257504 0.000000
84 1 4.257504 -4.257504 3.010510
85 1 4.257504 -4.257504 6.021020
86 1 4.257504 -0.000000 -6.021020
87 1 4.257504 -0.000000 -3.010510
88 1 4.257504 0.000000 0.000000
89 1 4.257504 0.000000 3.010510
90 1 4.257504 0.000000 6.021020
91 1 4.257504 4.257504 -6.021020
92 1 4.257504 4.257504 -3.010510
93 1 4.257504 4.257504 0.000000
94 1 4.257504 4.257504 3.010510
95 1 4.257504 4.257504 6.021020
96 1 4.257504 8.515008 -6.021020
97 1 4.257504 8.515008 -3.010510
98 1 4.257504 8.515008 0.000000
99 1 4.257504 8.515008 3.010510
100 1 4.257504 8.515008 6.021020
101 1 8.515008 -8.515008 -6.021020
102 1 8.515008 -8.515008 -3.010510
103 1 8.515008 -8.515008 0.000000
104 1 8.515008 -8.515008 3.010510
105 1 8.515008 -8.515008 6.021020
106 1 8.515008 -4.257504 -6.021020
107 1 8.515008 -4.257504 -3.010510
108 1 8.515008 -4.257504 0.000000
109 1 8.515008 -4.257504 3.010510
110 1 8.515008 -4.257504 6.021020
111 1 8.515008 -0.000000 -6.021020
112 1 8.515008 -0.000000 -3.010510
113 1 8.515008 0.000000 0.000000
114 1 8.515008 0.000000 3.010510
115 1 8.515008 0.000000 6.021020
116 1 8.515008 4.257504 -6.021020
117 1 8.515008 4.257504 -3.010510
118 1 8.515008 4.257504 0.000000
119 1 8.515008 4.257504 3.010510
120 1 8.515008 4.257504 6.021020
121 1 8.515008 8.515008 -6.021020
122 1 8.515008 8.515008 -3.010510
123 1 8.515008 8.515008 0.000000
124 1 8.515008 8.515008 3.010510
125 1 8.515008 8.515008 6.021020
126 1 -6.386256 -6.386256 -6.021020
127 1 -6.386256 -6.386256 -3.010510
128 1 -6.386256 -6.386256 0.000000
129 1 -6.386256 -6.386256 3.010510
130 1 -6.386256 -6.386256 6.021020
131 1 -6.386256 -2.128752 -6.021020
132 1 -6.386256 -2.128752 -3.010510
133 1 -6.386256 -2.128752 0.000000
134 1 -6.386256 -2.128752 3.010510
135 1 -6.386256 -2.128752 6.021020
136 1 -6.386256 2.128752 -6.021020
137 1 -6.386256 2.128752 -3.010510
138 1 -6.386256 2.128752 0.000000
139 1 -6.386256 2.128752 3.010510
140 1 -6.386256 2.128752 6.021020
141 1 -6.386256 6.386256 -6.021020
142 1 -6.386256 6.386256 -3.010510
143 1 -6.386256 6.386256 0.000000
144 1 -6.386256 6.386256 3.010510
145 1 -6.386256 6.386256 6.021020
146 1 -2.128752 -6.386256 -6.021020
147 1 -2.128752 -6.386256 -3.010510
148 1 -2.128752 -6.386256 0.000000
149 1 -2.128752 -6.386256 3.010510
150 1 -2.128752 -6.386256 6.021020
151 1 -2.128752 -2.128752 -6.021020
152 1 -2.128752 -2.128752 -3.010510
153 1 -2.128752 -2.128752 0.000000
154 1 -2.128752 -2.128752 3.010510
155 1 -2.128752 -2.128752 6.021020
156 1 -2.128752 2.128752 -6.021020
157 1 -2.128752 2.128752 -3.010510
158 1 -2.128752 2.128752 0.000000
159 1 -2.128752 2.128752 3.010510
160 1 -2.128752 2.128752 6.021020
161 1 -2.128752 6.386256 -6.021020
162 1 -2.128752 6.386256 -3.010510
163 1 -2.128752 6.386256 0.000000
164 1 -2.128752 6.386256 3.010510
165 1 -2.128752 6.386256 6.021020
166 1 2.128752 -6.386256 -6.021020
167 1 2.128752 -6.386256 -3.010510
168 1 2.128752 -6.386256 0.000000
169 1 2.128752 -6.386256 3.010510
170 1 2.128752 -6.386256 6.021020
171 1 2.128752 -2.128752 -6.021020
172 1 2.128752 -2.128752 -3.010510
173 1 2.128752 -2.128752 0.000000
174 1 2.128752 -2.128752 3.010510
175 1 2.128752 -2.128752 6.021020
176 1 2.128752 2.128752 -6.021020
177 1 2.128752 2.128752 -3.010510
178 1 2.128752 2.128752 0.000000
179 1 2.128752 2.128752 3.010510
180 1 2.128752 2.128752 6.021020
181 1 2.128752 6.386256 -6.021020
182 1 2.128752 6.386256 -3.010510
183 1 2.128752 6.386256 0.000000
184 1 2.128752 6.386256 3.010510
185 1 2.128752 6.386256 6.021020
186 1 6.386256 -6.386256 -6.021020
187 1 6.386256 -6.386256 -3.010510
188 1 6.386256 -6.386256 0.000000
189 1 6.386256 -6.386256 3.010510
190 1 6.386256 -6.386256 6.021020
191 1 6.386256 -2.128752 -6.021020
192 1 6.386256 -2.128752 -3.010510
193 1 6.386256 -2.128752 0.000000
194 1 6.386256 -2.128752 3.010510
195 1 6.386256 -2.128752 6.021020
196 1 6.386256 2.128752 -6.021020
197 1 6.386256 2.128752 -3.010510
198 1 6.386256 2.128752 0.000000
199 1 6.386256 2.128752 3.010510
200 1 6.386256 2.128752 6.021020
201 1 6.386256 6.386256 -6.021020
202 1 6.386256 6.386256 -3.010510
203 1 6.386256 6.386256 0.000000
204 1 6.386256 6.386256 3.010510
205 1 6.386256 6.386256 6.021020
206 2 -8.515008 -6.386256 -4.515765
207 2 -8.515008 -6.386256 -1.505255
208 2 -8.515008 -6.386256 1.505255
209 2 -8.515008 -6.386256 4.515765
210 2 -8.515008 -2.128752 -4.515765
211 2 -8.515008 -2.128752 -1.505255
212 2 -8.515008 -2.128752 1.505255
213 2 -8.515008 -2.128752 4.515765
214 2 -8.515008 2.128752 -4.515765
215 2 -8.515008 2.128752 -1.505255
216 2 -8.515008 2.128752 1.505255
217 2 -8.515008 2.128752 4.515765
218 2 -8.515008 6.386256 -4.515765
219 2 -8.515008 6.386256 -1.505255
220 2 -8.515008 6.386256 1.505255
221 2 -8.515008 6.386256 4.515765
222 2 -4.257504 -6.386256 -4.515765
223 2 -4.257504 -6.386256 -1.505255
224 2 -4.257504 -6.386256 1.505255
225 2 -4.257504 -6.386256 4.515765
226 2 -4.257504 -2.128752 -4.515765
227 2 -4.257504 -2.128752 -1.505255
228 2 -4.257504 -2.128752 1.505255
229 2 -4.257504 -2.128752 4.515765
230 2 -4.257504 2.128752 -4.515765
231 2 -4.257504 2.128752 -1.505255
232 2 -4.257504 2.128752 1.505255
233 2 -4.257504 2.128752 4.515765
234 2 -4.257504 6.386256 -4.515765
235 2 -4.257504 6.386256 -1.505255
236 2 -4.257504 6.386256 1.505255
237 2 -4.257504 6.386256 4.515765
238 2 -0.000000 -6.386256 -4.515765
239 2 -0.000000 -6.386256 -1.505255
240 2 -0.000000 -6.386256 1.505255
241 2 -0.000000 -6.386256 4.515765
242 2 -0.000000 -2.128752 -4.515765
243 2 -0.000000 -2.128752 -1.505255
244 2 -0.000000 -2.128752 1.505255
245 2 0.000000 -2.128752 4.515765
246 2 -0.000000 2.128752 -4.515765
247 2 0.000000 2.128752 -1.505255
248 2 0.000000 2.128752 1.505255
249 2 0.000000 2.128752 4.515765
250 2 0.000000 6.386256 -4.515765
251 2 0.000000 6.386256 -1.505255
252 2 0.000000 6.386256 1.505255
253 2 0.000000 6.386256 4.515765
254 2 4.257504 -6.386256 -4.515765
255 2 4.257504 -6.386256 -1.505255
256 2 4.257504 -6.386256 1.505255
257 2 4.257504 -6.386256 4.515765
258 2 4.257504 -2.128752 -4.515765
259 2 4.257504 -2.128752 -1.505255
260 2 4.257504 -2.128752 1.505255
261 2 4.257504 -2.128752 4.515765
262 2 4.257504 2.128752 -4.515765
263 2 4.257504 2.128752 -1.505255
264 2 4.257504 2.128752 1.505255
265 2 4.257504 2.128752 4.515765
266 2 4.257504 6.386256 -4.515765
267 2 4.257504 6.386256 -1.505255
268 2 4.257504 6.386256 1.505255
269 2 4.257504 6.386256 4.515765
270 2 8.515008 -6.386256 -4.515765
271 2 8.515008 -6.386256 -1.505255
272 2 8.515008 -6.386256 1.505255
273 2 8.515008 -6.386256 4.515765
274 2 8.515008 -2.128752 -4.515765
275 2 8.515008 -2.128752 -1.505255
276 2 8.515008 -2.128752 1.505255
277 2 8.515008 -2.128752 4.515765
278 2 8.515008 2.128752 -4.515765
279 2 8.515008 2.128752 -1.505255
280 2 8.515008 2.128752 1.505255
281 2 8.515008 2.128752 4.515765
282 2 8.515008 6.386256 -4.515765
283 2 8.515008 6.386256 -1.505255
284 2 8.515008 6.386256 1.505255
285 2 8.515008 6.386256 4.515765
286 2 -6.386256 -8.515008 -4.515765
287 2 -6.386256 -8.515008 -1.505255
288 2 -6.386256 -8.515008 1.505255
289 2 -6.386256 -8.515008 4.515765
290 2 -6.386256 -4.257504 -4.515765
291 2 -6.386256 -4.257504 -1.505255
292 2 -6.386256 -4.257504 1.505255
293 2 -6.386256 -4.257504 4.515765
294 2 -6.386256 -0.000000 -4.515765
295 2 -6.386256 -0.000000 -1.505255
296 2 -6.386256 0.000000 1.505255
297 2 -6.386256 0.000000 4.515765
298 2 -6.386256 4.257504 -4.515765
299 2 -6.386256 4.257504 -1.505255
300 2 -6.386256 4.257504 1.505255
301 2 -6.386256 4.257504 4.515765
302 2 -6.386256 8.515008 -4.515765
303 2 -6.386256 8.515008 -1.505255
304 2 -6.386256 8.515008 1.505255
305 2 -6.386256 8.515008 4.515765
306 2 -2.128752 -8.515008 -4.515765
307 2 -2.128752 -8.515008 -1.505255
308 2 -2.128752 -8.515008 1.505255
309 2 -2.128752 -8.515008 4.515765
310 2 -2.128752 -4.257504 -4.515765
311 2 -2.128752 -4.257504 -1.505255
312 2 -2.128752 -4.257504 1.505255
313 2 -2.128752 -4.257504 4.515765
314 2 -2.128752 -0.000000 -4.515765
315 2 -2.128752 -0.000000 -1.505255
316 2 -2.128752 0.000000 1.505255
317 2 -2.128752 0.000000 4.515765
318 2 -2.128752 4.257504 -4.515765
319 2 -2.128752 4.257504 -1.505255
320 2 -2.128752 4.257504 1.505255
321 2 -2.128752 4.257504 4.515765
322 2 -2.128752 8.515008 -4.515765
323 2 -2.128752 8.515008 -1.505255
324 2 -2.128752 8.515008 1.505255
325 2 -2.128752 8.515008 4.515765
326 2 2.128752 -8.515008 -4.515765
327 2 2.128752 -8.515008 -1.505255
328 2 2.128752 -8.515008 1.505255
329 2 2.128752 -8.515008 4.515765
330 2 2.128752 -4.257504 -4.515765
331 2 2.128752 -4.257504 -1.505255
332 2 2.128752 -4.257504 1.505255
333 2 2.128752 -4.257504 4.515765
334 2 2.128752 -0.000000 -4.515765
335 2 2.128752 -0.000000 -1.505255
336 2 2.128752 0.000000 1.505255
337 2 2.128752 0.000000 4.515765
338 2 2.128752 4.257504 -4.515765
339 2 2.128752 4.257504 -1.505255
340 2 2.128752 4.257504 1.505255
341 2 2.128752 4.257504 4.515765
342 2 2.128752 8.515008 -4.515765
343 2 2.128752 8.515008 -1.505255
344 2 2.128752 8.515008 1.505255
345 2 2.128752 8.515008 4.515765
346 2 6.386256 -8.515008 -4.515765
347 2 6.386256 -8.515008 -1.505255
348 2 6.386256 -8.515008 1.505255
349 2 6.386256 -8.515008 4.515765
350 2 6.386256 -4.257504 -4.515765
351 2 6.386256 -4.257504 -1.505255
352 2 6.386256 -4.257504 1.505255
353 2 6.386256 -4.257504 4.515765
354 2 6.386256 -0.000000 -4.515765
355 2 6.386256 -0.000000 -1.505255
356 2 6.386256 0.000000 1.505255
357 2 6.386256 0.000000 4.515765
358 2 6.386256 4.257504 -4.515765
359 2 6.386256 4.257504 -1.505255
360 2 6.386256 4.257504 1.505255
361 2 6.386256 4.257504 4.515765
362 2 6.386256 8.515008 -4.515765
363 2 6.386256 8.515008 -1.505255
364 2 6.386256 8.515008 1.505255
365 2 6.386256 8.515008 4.515765
366 3 -43.427331 -8.397315 -5.937799
367 3 -43.427331 -8.397315 -2.968899
368 3 -43.427331 -8.397315 0.000000
369 3 -43.427331 -8.397315 2.968899
370 3 -43.427331 -8.397315 5.937799
371 3 -43.427331 -4.198658 -5.937799
372 3 -43.427331 -4.198658 -2.968899
373 3 -43.427331 -4.198658 0.000000
374 3 -43.427331 -4.198658 2.968899
375 3 -43.427331 -4.198658 5.937799
376 3 -43.427331 0.000000 -5.937799
377 3 -43.427331 0.000000 -2.968899
378 3 -43.427331 0.000000 0.000000
379 3 -43.427331 0.000000 2.968899
380 3 -43.427331 0.000000 5.937799
381 3 -43.427331 4.198658 -5.937799
382 3 -43.427331 4.198658 -2.968899
383 3 -43.427331 4.198658 0.000000
384 3 -43.427331 4.198658 2.968899
385 3 -43.427331 4.198658 5.937799
386 3 -43.427331 8.397315 -5.937799
387 3 -43.427331 8.397315 -2.968899
388 3 -43.427331 8.397315 0.000000
389 3 -43.427331 8.397315 2.968899
390 3 -43.427331 8.397315 5.937799
391 3 -39.228674 -8.397315 -5.937799
392 3 -39.228674 -8.397315 -2.968899
393 3 -39.228674 -8.397315 0.000000
394 3 -39.228674 -8.397315 2.968899
395 3 -39.228674 -8.397315 5.937799
396 3 -39.228674 -4.198658 -5.937799
397 3 -39.228674 -4.198658 -2.968899
398 3 -39.228674 -4.198658 0.000000
399 3 -39.228674 -4.198658 2.968899
400 3 -39.228674 -4.198658 5.937799
401 3 -39.228674 0.000000 -5.937799
402 3 -39.228674 0.000000 -2.968899
403 3 -39.228674 0.000000 0.000000
404 3 -39.228674 0.000000 2.968899
405 3 -39.228674 0.000000 5.937799
406 3 -39.228674 4.198658 -5.937799
407 3 -39.228674 4.198658 -2.968899
408 3 -39.228674 4.198658 0.000000
409 3 -39.228674 4.198658 2.968899
410 3 -39.228674 4.198658 5.937799
411 3 -39.228674 8.397315 -5.937799
412 3 -39.228674 8.397315 -2.968899
413 3 -39.228674 8.397315 0.000000
414 3 -39.228674 8.397315 2.968899
415 3 -39.228674 8.397315 5.937799
416 3 -35.030016 -8.397315 -5.937799
417 3 -35.030016 -8.397315 -2.968899
418 3 -35.030016 -8.397315 0.000000
419 3 -35.030016 -8.397315 2.968899
420 3 -35.030016 -8.397315 5.937799
421 3 -35.030016 -4.198658 -5.937799
422 3 -35.030016 -4.198658 -2.968899
423 3 -35.030016 -4.198658 0.000000
424 3 -35.030016 -4.198658 2.968899
425 3 -35.030016 -4.198658 5.937799
426 3 -35.030016 0.000000 -5.937799
427 3 -35.030016 0.000000 -2.968899
428 3 -35.030016 0.000000 0.000000
429 3 -35.030016 0.000000 2.968899
430 3 -35.030016 0.000000 5.937799
431 3 -35.030016 4.198658 -5.937799
432 3 -35.030016 4.198658 -2.968899
433 3 -35.030016 4.198658 0.000000
434 3 -35.030016 4.198658 2.968899
435 3 -35.030016 4.198658 5.937799
436 3 -35.030016 8.397315 -5.937799
437 3 -35.030016 8.397315 -2.968899
438 3 -35.030016 8.397315 0.000000
439 3 -35.030016 8.397315 2.968899
440 3 -35.030016 8.397315 5.937799
441 3 -30.831358 -8.397315 -5.937799
442 3 -30.831358 -8.397315 -2.968899
443 3 -30.831358 -8.397315 0.000000
444 3 -30.831358 -8.397315 2.968899
445 3 -30.831358 -8.397315 5.937799
446 3 -30.831358 -4.198658 -5.937799
447 3 -30.831358 -4.198658 -2.968899
448 3 -30.831358 -4.198658 0.000000
449 3 -30.831358 -4.198658 2.968899
450 3 -30.831358 -4.198658 5.937799
451 3 -30.831358 0.000000 -5.937799
452 3 -30.831358 0.000000 -2.968899
453 3 -30.831358 0.000000 0.000000
454 3 -30.831358 0.000000 2.968899
455 3 -30.831358 0.000000 5.937799
456 3 -30.831358 4.198658 -5.937799
457 3 -30.831358 4.198658 -2.968899
458 3 -30.831358 4.198658 0.000000
459 3 -30.831358 4.198658 2.968899
460 3 -30.831358 4.198658 5.937799
461 3 -30.831358 8.397315 -5.937799
462 3 -30.831358 8.397315 -2.968899
463 3 -30.831358 8.397315 0.000000
464 3 -30.831358 8.397315 2.968899
465 3 -30.831358 8.397315 5.937799
466 3 -26.632701 -8.397315 -5.937799
467 3 -26.632701 -8.397315 -2.968899
468 3 -26.632701 -8.397315 0.000000
469 3 -26.632701 -8.397315 2.968899
470 3 -26.632701 -8.397315 5.937799
471 3 -26.632701 -4.198658 -5.937799
472 3 -26.632701 -4.198658 -2.968899
473 3 -26.632701 -4.198658 0.000000
474 3 -26.632701 -4.198658 2.968899
475 3 -26.632701 -4.198658 5.937799
476 3 -26.632701 0.000000 -5.937799
477 3 -26.632701 0.000000 -2.968899
478 3 -26.632701 0.000000 0.000000
479 3 -26.632701 0.000000 2.968899
480 3 -26.632701 0.000000 5.937799
481 3 -26.632701 4.198658 -5.937799
482 3 -26.632701 4.198658 -2.968899
483 3 -26.632701 4.198658 0.000000
484 3 -26.632701 4.198658 2.968899
485 3 -26.632701 4.198658 5.937799
486 3 -26.632701 8.397315 -5.937799
487 3 -26.632701 8.397315 -2.968899
488 3 -26.632701 8.397315 0.000000
489 3 -26.632701 8.397315 2.968899
490 3 -26.632701 8.397315 5.937799
491 3 -41.328002 -6.297986 -5.937799
492 3 -41.328002 -6.297986 -2.968899
493 3 -41.328002 -6.297986 0.000000
494 3 -41.328002 -6.297986 2.968899
495 3 -41.328002 -6.297986 5.937799
496 3 -41.328002 -2.099329 -5.937799
497 3 -41.328002 -2.099329 -2.968899
498 3 -41.328002 -2.099329 0.000000
499 3 -41.328002 -2.099329 2.968899
500 3 -41.328002 -2.099329 5.937799
501 3 -41.328002 2.099329 -5.937799
502 3 -41.328002 2.099329 -2.968899
503 3 -41.328002 2.099329 0.000000
504 3 -41.328002 2.099329 2.968899
505 3 -41.328002 2.099329 5.937799
506 3 -41.328002 6.297986 -5.937799
507 3 -41.328002 6.297986 -2.968899
508 3 -41.328002 6.297986 0.000000
509 3 -41.328002 6.297986 2.968899
510 3 -41.328002 6.297986 5.937799
511 3 -37.129345 -6.297986 -5.937799
512 3 -37.129345 -6.297986 -2.968899
513 3 -37.129345 -6.297986 0.000000
514 3 -37.129345 -6.297986 2.968899
515 3 -37.129345 -6.297986 5.937799
516 3 -37.129345 -2.099329 -5.937799
517 3 -37.129345 -2.099329 -2.968899
518 3 -37.129345 -2.099329 0.000000
519 3 -37.129345 -2.099329 2.968899
520 3 -37.129345 -2.099329 5.937799
521 3 -37.129345 2.099329 -5.937799
522 3 -37.129345 2.099329 -2.968899
523 3 -37.129345 2.099329 0.000000
524 3 -37.129345 2.099329 2.968899
525 3 -37.129345 2.099329 5.937799
526 3 -37.129345 6.297986 -5.937799
527 3 -37.129345 6.297986 -2.968899
528 3 -37.129345 6.297986 0.000000
529 3 -37.129345 6.297986 2.968899
530 3 -37.129345 6.297986 5.937799
531 3 -32.930687 -6.297986 -5.937799
532 3 -32.930687 -6.297986 -2.968899
533 3 -32.930687 -6.297986 0.000000
534 3 -32.930687 -6.297986 2.968899
535 3 -32.930687 -6.297986 5.937799
536 3 -32.930687 -2.099329 -5.937799
537 3 -32.930687 -2.099329 -2.968899
538 3 -32.930687 -2.099329 0.000000
539 3 -32.930687 -2.099329 2.968899
540 3 -32.930687 -2.099329 5.937799
541 3 -32.930687 2.099329 -5.937799
542 3 -32.930687 2.099329 -2.968899
543 3 -32.930687 2.099329 0.000000
544 3 -32.930687 2.099329 2.968899
545 3 -32.930687 2.099329 5.937799
546 3 -32.930687 6.297986 -5.937799
547 3 -32.930687 6.297986 -2.968899
548 3 -32.930687 6.297986 0.000000
549 3 -32.930687 6.297986 2.968899
550 3 -32.930687 6.297986 5.937799
551 3 -28.732030 -6.297986 -5.937799
552 3 -28.732030 -6.297986 -2.968899
553 3 -28.732030 -6.297986 0.000000
554 3 -28.732030 -6.297986 2.968899
555 3 -28.732030 -6.297986 5.937799
556 3 -28.732030 -2.099329 -5.937799
557 3 -28.732030 -2.099329 -2.968899
558 3 -28.732030 -2.099329 0.000000
559 3 -28.732030 -2.099329 2.968899
560 3 -28.732030 -2.099329 5.937799
561 3 -28.732030 2.099329 -5.937799
562 3 -28.732030 2.099329 -2.968899
563 3 -28.732030 2.099329 0.000000
564 3 -28.732030 2.099329 2.968899
565 3 -28.732030 2.099329 5.937799
566 3 -28.732030 6.297986 -5.937799
567 3 -28.732030 6.297986 -2.968899
568 3 -28.732030 6.297986 0.000000
569 3 -28.732030 6.297986 2.968899
570 3 -28.732030 6.297986 5.937799
571 3 -41.328002 -8.397315 -4.453349
572 3 -41.328002 -8.397315 -1.484450
573 3 -41.328002 -8.397315 1.484450
574 3 -41.328002 -8.397315 4.453349
575 3 -41.328002 -4.198658 -4.453349
576 3 -41.328002 -4.198658 -1.484450
577 3 -41.328002 -4.198658 1.484450
578 3 -41.328002 -4.198658 4.453349
579 3 -41.328002 0.000000 -4.453349
580 3 -41.328002 0.000000 -1.484450
581 3 -41.328002 0.000000 1.484450
582 3 -41.328002 0.000000 4.453349
583 3 -41.328002 4.198658 -4.453349
584 3 -41.328002 4.198658 -1.484450
585 3 -41.328002 4.198658 1.484450
586 3 -41.328002 4.198658 4.453349
587 3 -41.328002 8.397315 -4.453349
588 3 -41.328002 8.397315 -1.484450
589 3 -41.328002 8.397315 1.484450
590 3 -41.328002 8.397315 4.453349
591 3 -37.129345 -8.397315 -4.453349
592 3 -37.129345 -8.397315 -1.484450
593 3 -37.129345 -8.397315 1.484450
594 3 -37.129345 -8.397315 4.453349
595 3 -37.129345 -4.198658 -4.453349
596 3 -37.129345 -4.198658 -1.484450
597 3 -37.129345 -4.198658 1.484450
598 3 -37.129345 -4.198658 4.453349
599 3 -37.129345 0.000000 -4.453349
600 3 -37.129345 0.000000 -1.484450
601 3 -37.129345 0.000000 1.484450
602 3 -37.129345 0.000000 4.453349
603 3 -37.129345 4.198658 -4.453349
604 3 -37.129345 4.198658 -1.484450
605 3 -37.129345 4.198658 1.484450
606 3 -37.129345 4.198658 4.453349
607 3 -37.129345 8.397315 -4.453349
608 3 -37.129345 8.397315 -1.484450
609 3 -37.129345 8.397315 1.484450
610 3 -37.129345 8.397315 4.453349
611 3 -32.930687 -8.397315 -4.453349
612 3 -32.930687 -8.397315 -1.484450
613 3 -32.930687 -8.397315 1.484450
614 3 -32.930687 -8.397315 4.453349
615 3 -32.930687 -4.198658 -4.453349
616 3 -32.930687 -4.198658 -1.484450
617 3 -32.930687 -4.198658 1.484450
618 3 -32.930687 -4.198658 4.453349
619 3 -32.930687 0.000000 -4.453349
620 3 -32.930687 0.000000 -1.484450
621 3 -32.930687 0.000000 1.484450
622 3 -32.930687 0.000000 4.453349
623 3 -32.930687 4.198658 -4.453349
624 3 -32.930687 4.198658 -1.484450
625 3 -32.930687 4.198658 1.484450
626 3 -32.930687 4.198658 4.453349
627 3 -32.930687 8.397315 -4.453349
628 3 -32.930687 8.397315 -1.484450
629 3 -32.930687 8.397315 1.484450
630 3 -32.930687 8.397315 4.453349
631 3 -28.732030 -8.397315 -4.453349
632 3 -28.732030 -8.397315 -1.484450
633 3 -28.732030 -8.397315 1.484450
634 3 -28.732030 -8.397315 4.453349
635 3 -28.732030 -4.198658 -4.453349
636 3 -28.732030 -4.198658 -1.484450
637 3 -28.732030 -4.198658 1.484450
638 3 -28.732030 -4.198658 4.453349
639 3 -28.732030 0.000000 -4.453349
640 3 -28.732030 0.000000 -1.484450
641 3 -28.732030 0.000000 1.484450
642 3 -28.732030 0.000000 4.453349
643 3 -28.732030 4.198658 -4.453349
644 3 -28.732030 4.198658 -1.484450
645 3 -28.732030 4.198658 1.484450
646 3 -28.732030 4.198658 4.453349
647 3 -28.732030 8.397315 -4.453349
648 3 -28.732030 8.397315 -1.484450
649 3 -28.732030 8.397315 1.484450
650 3 -28.732030 8.397315 4.453349
651 3 -43.427331 -6.297986 -4.453349
652 3 -43.427331 -6.297986 -1.484450
653 3 -43.427331 -6.297986 1.484450
654 3 -43.427331 -6.297986 4.453349
655 3 -43.427331 -2.099329 -4.453349
656 3 -43.427331 -2.099329 -1.484450
657 3 -43.427331 -2.099329 1.484450
658 3 -43.427331 -2.099329 4.453349
659 3 -43.427331 2.099329 -4.453349
660 3 -43.427331 2.099329 -1.484450
661 3 -43.427331 2.099329 1.484450
662 3 -43.427331 2.099329 4.453349
663 3 -43.427331 6.297986 -4.453349
664 3 -43.427331 6.297986 -1.484450
665 3 -43.427331 6.297986 1.484450
666 3 -43.427331 6.297986 4.453349
667 3 -39.228674 -6.297986 -4.453349
668 3 -39.228674 -6.297986 -1.484450
669 3 -39.228674 -6.297986 1.484450
670 3 -39.228674 -6.297986 4.453349
671 3 -39.228674 -2.099329 -4.453349
672 3 -39.228674 -2.099329 -1.484450
673 3 -39.228674 -2.099329 1.484450
674 3 -39.228674 -2.099329 4.453349
675 3 -39.228674 2.099329 -4.453349
676 3 -39.228674 2.099329 -1.484450
677 3 -39.228674 2.099329 1.484450
678 3 -39.228674 2.099329 4.453349
679 3 -39.228674 6.297986 -4.453349
680 3 -39.228674 6.297986 -1.484450
681 3 -39.228674 6.297986 1.484450
682 3 -39.228674 6.297986 4.453349
683 3 -35.030016 -6.297986 -4.453349
684 3 -35.030016 -6.297986 -1.484450
685 3 -35.030016 -6.297986 1.484450
686 3 -35.030016 -6.297986 4.453349
687 3 -35.030016 -2.099329 -4.453349
688 3 -35.030016 -2.099329 -1.484450
689 3 -35.030016 -2.099329 1.484450
690 3 -35.030016 -2.099329 4.453349
691 3 -35.030016 2.099329 -4.453349
692 3 -35.030016 2.099329 -1.484450
693 3 -35.030016 2.099329 1.484450
694 3 -35.030016 2.099329 4.453349
695 3 -35.030016 6.297986 -4.453349
696 3 -35.030016 6.297986 -1.484450
697 3 -35.030016 6.297986 1.484450
698 3 -35.030016 6.297986 4.453349
699 3 -30.831358 -6.297986 -4.453349
700 3 -30.831358 -6.297986 -1.484450
701 3 -30.831358 -6.297986 1.484450
702 3 -30.831358 -6.297986 4.453349
703 3 -30.831358 -2.099329 -4.453349
704 3 -30.831358 -2.099329 -1.484450
705 3 -30.831358 -2.099329 1.484450
706 3 -30.831358 -2.099329 4.453349
707 3 -30.831358 2.099329 -4.453349
708 3 -30.831358 2.099329 -1.484450
709 3 -30.831358 2.099329 1.484450
710 3 -30.831358 2.099329 4.453349
711 3 -30.831358 6.297986 -4.453349
712 3 -30.831358 6.297986 -1.484450
713 3 -30.831358 6.297986 1.484450
714 3 -30.831358 6.297986 4.453349
715 3 -26.632701 -6.297986 -4.453349
716 3 -26.632701 -6.297986 -1.484450
717 3 -26.632701 -6.297986 1.484450
718 3 -26.632701 -6.297986 4.453349
719 3 -26.632701 -2.099329 -4.453349
720 3 -26.632701 -2.099329 -1.484450
721 3 -26.632701 -2.099329 1.484450
722 3 -26.632701 -2.099329 4.453349
723 3 -26.632701 2.099329 -4.453349
724 3 -26.632701 2.099329 -1.484450
725 3 -26.632701 2.099329 1.484450
726 3 -26.632701 2.099329 4.453349
727 3 -26.632701 6.297986 -4.453349
728 3 -26.632701 6.297986 -1.484450
729 3 -26.632701 6.297986 1.484450
730 3 -26.632701 6.297986 4.453349

