LAMMPS Description

580 atoms
3 atom types
-48.42730 13.51500 xlo xhi
-8.51501 8.51501 ylo yhi
-6.02102 6.02102 zlo zhi


Atoms

1 1 -13.230200 -8.349300 -5.926140
2 1 -13.230200 -8.349300 -2.915630
3 1 -13.230200 -8.349300 0.094878
4 1 -13.230200 -8.349300 3.105390
5 1 -13.229400 -4.092460 -5.926140
6 1 -13.229400 -4.092460 -2.915630
7 1 -13.229400 -4.092460 0.094880
8 1 -13.229400 -4.092460 3.105390
9 1 -13.230200 0.165714 -5.926140
10 1 -13.230200 0.165714 -2.915630
11 1 -13.230200 0.165714 0.094878
12 1 -13.230200 0.165714 3.105390
13 1 -13.229400 4.422550 -5.926140
14 1 -13.229400 4.422550 -2.915630
15 1 -13.229400 4.422550 0.094880
16 1 -13.229400 4.422550 3.105390
17 1 -9.124900 -8.351250 -5.928050
18 1 -9.124900 -8.351250 -2.917540
19 1 -9.124900 -8.351250 0.092971
20 1 -9.124900 -8.351250 3.103480
21 1 -9.124440 -4.091220 -5.928040
22 1 -9.124440 -4.091220 -2.917530
23 1 -9.124440 -4.091220 0.092981
24 1 -9.124440 -4.091220 3.103490
25 1 -9.124900 0.163760 -5.928050
26 1 -9.124900 0.163760 -2.917540
27 1 -9.124900 0.163760 0.092971
28 1 -9.124900 0.163760 3.103480
29 1 -9.124440 4.423790 -5.928040
30 1 -9.124440 4.423790 -2.917530
31 1 -9.124440 4.423790 0.092981
32 1 -9.124440 4.423790 3.103490
33 1 -4.961050 -8.352220 -5.928660
34 1 -4.961050 -8.352220 -2.918150
35 1 -4.961050 -8.352220 0.092363
36 1 -4.961050 -8.352220 3.102870
37 1 -4.961770 -4.091830 -5.928650
38 1 -4.961770 -4.091830 -2.918140
39 1 -4.961770 -4.091830 0.092370
40 1 -4.961770 -4.091830 3.102880
41 1 -4.961050 0.162788 -5.928660
42 1 -4.961050 0.162788 -2.918150
43 1 -4.961050 0.162788 0.092363
44 1 -4.961050 0.162788 3.102870
45 1 -4.961770 4.423180 -5.928650
46 1 -4.961770 4.423180 -2.918140
47 1 -4.961770 4.423180 0.092370
48 1 -4.961770 4.423180 3.102880
49 1 -0.849397 -8.349630 -5.927280
50 1 -0.849397 -8.349630 -2.916770
51 1 -0.849397 -8.349630 0.093736
52 1 -0.849397 -8.349630 3.104250
53 1 -0.849460 -4.093350 -5.927250
54 1 -0.849460 -4.093350 -2.916740
55 1 -0.849460 -4.093350 0.093771
56 1 -0.849460 -4.093350 3.104280
57 1 -0.849397 0.165384 -5.927280
58 1 -0.849397 0.165384 -2.916770
59 1 -0.849397 0.165384 0.093736
60 1 -0.849397 0.165384 3.104250
61 1 -0.849460 4.421660 -5.927250
62 1 -0.849460 4.421660 -2.916740
63 1 -0.849460 4.421660 0.093771
64 1 -0.849460 4.421660 3.104280
65 1 -11.133300 -6.222760 -5.927210
66 1 -11.133300 -6.222760 -2.916700
67 1 -11.133300 -6.222760 0.093808
68 1 -11.133300 -6.222760 3.104320
69 1 -11.133300 -1.966410 -5.927250
70 1 -11.133300 -1.966410 -2.916740
71 1 -11.133300 -1.966410 0.093771
72 1 -11.133300 -1.966410 3.104280
73 1 -11.133300 2.292250 -5.927210
74 1 -11.133300 2.292250 -2.916700
75 1 -11.133300 2.292250 0.093808
76 1 -11.133300 2.292250 3.104320
77 1 -11.133300 6.548600 -5.927250
78 1 -11.133300 6.548600 -2.916740
79 1 -11.133300 6.548600 0.093771
80 1 -11.133300 6.548600 3.104280
81 1 -7.019890 -6.222760 -5.928630
82 1 -7.019890 -6.222760 -2.918120
83 1 -7.019890 -6.222760 0.092391
84 1 -7.019890 -6.222760 3.102900
85 1 -7.020630 -1.962370 -5.928630
86 1 -7.020630 -1.962370 -2.918120
87 1 -7.020630 -1.962370 0.092386
88 1 -7.020630 -1.962370 3.102900
89 1 -7.019890 2.292250 -5.928630
90 1 -7.019890 2.292250 -2.918120
91 1 -7.019890 2.292250 0.092391
92 1 -7.019890 2.292250 3.102900
93 1 -7.020630 6.552640 -5.928630
94 1 -7.020630 6.552640 -2.918120
95 1 -7.020630 6.552640 0.092386
96 1 -7.020630 6.552640 3.102900
97 1 -2.861980 -6.224000 -5.928080
98 1 -2.861980 -6.224000 -2.917570
99 1 -2.861980 -6.224000 0.092942
100 1 -2.861980 -6.224000 3.103450
101 1 -2.861550 -1.963950 -5.928090
102 1 -2.861550 -1.963950 -2.917580
103 1 -2.861550 -1.963950 0.092932
104 1 -2.861550 -1.963950 3.103440
105 1 -2.861980 2.291010 -5.928080
106 1 -2.861980 2.291010 -2.917570
107 1 -2.861980 2.291010 0.092942
108 1 -2.861980 2.291010 3.103450
109 1 -2.861550 6.551060 -5.928090
110 1 -2.861550 6.551060 -2.917580
111 1 -2.861550 6.551060 0.092932
112 1 -2.861550 6.551060 3.103440
113 1 1.240820 -6.221310 -5.926160
114 1 1.240820 -6.221310 -2.915650
115 1 1.240820 -6.221310 0.094861
116 1 1.240820 -6.221310 3.105370
117 1 1.241580 -1.964560 -5.926160
118 1 1.241580 -1.964560 -2.915650
119 1 1.241580 -1.964560 0.094860
120 1 1.241580 -1.964560 3.105370
121 1 1.240820 2.293700 -5.926160
122 1 1.240820 2.293700 -2.915650
123 1 1.240820 2.293700 0.094861
124 1 1.240820 2.293700 3.105370
125 1 1.241580 6.550450 -5.926160
126 1 1.241580 6.550450 -2.915650
127 1 1.241580 6.550450 0.094860
128 1 1.241580 6.550450 3.105370
129 2 -13.231700 -6.222990 -4.420990
130 2 -13.231700 -6.222990 -1.410480
131 2 -13.231700 -6.222990 1.600030
132 2 -13.231700 -6.222990 4.610540
133 2 -13.231600 -1.963500 -4.420990
134 2 -13.231600 -1.963500 -1.410480
135 2 -13.231600 -1.963500 1.600030
136 2 -13.231600 -1.963500 4.610540
137 2 -13.231700 2.292020 -4.420990
138 2 -13.231700 2.292020 -1.410480
139 2 -13.231700 2.292020 1.600030
140 2 -13.231700 2.292020 4.610540
141 2 -13.231600 6.551510 -4.420990
142 2 -13.231600 6.551510 -1.410480
143 2 -13.231600 6.551510 1.600030
144 2 -13.231600 6.551510 4.610540
145 2 -9.089790 -6.220770 -4.418620
146 2 -9.089790 -6.220770 -1.408110
147 2 -9.089790 -6.220770 1.602400
148 2 -9.089790 -6.220770 4.612910
149 2 -9.090390 -1.964430 -4.418640
150 2 -9.090390 -1.964430 -1.408130
151 2 -9.090390 -1.964430 1.602380
152 2 -9.090390 -1.964430 4.612890
153 2 -9.089790 2.294240 -4.418620
154 2 -9.089790 2.294240 -1.408110
155 2 -9.089790 2.294240 1.602400
156 2 -9.089790 2.294240 4.612910
157 2 -9.090390 6.550580 -4.418640
158 2 -9.090390 6.550580 -1.408130
159 2 -9.090390 6.550580 1.602380
160 2 -9.090390 6.550580 4.612890
161 2 -4.950820 -6.220880 -4.418040
162 2 -4.950820 -6.220880 -1.407530
163 2 -4.950820 -6.220880 1.602980
164 2 -4.950820 -6.220880 4.613490
165 2 -4.950380 -1.962790 -4.418070
166 2 -4.950380 -1.962790 -1.407560
167 2 -4.950380 -1.962790 1.602950
168 2 -4.950380 -1.962790 4.613460
169 2 -4.950820 2.294130 -4.418040
170 2 -4.950820 2.294130 -1.407530
171 2 -4.950820 2.294130 1.602980
172 2 -4.950820 2.294130 4.613490
173 2 -4.950380 6.552220 -4.418070
174 2 -4.950380 6.552220 -1.407560
175 2 -4.950380 6.552220 1.602950
176 2 -4.950380 6.552220 4.613460
177 2 -0.774770 -6.221530 -4.419520
178 2 -0.774770 -6.221530 -1.409010
179 2 -0.774770 -6.221530 1.601500
180 2 -0.774770 -6.221530 4.612010
181 2 -0.775722 -1.966560 -4.419500
182 2 -0.775722 -1.966560 -1.408990
183 2 -0.775722 -1.966560 1.601520
184 2 -0.775722 -1.966560 4.612030
185 2 -0.774770 2.293480 -4.419520
186 2 -0.774770 2.293480 -1.409010
187 2 -0.774770 2.293480 1.601500
188 2 -0.774770 2.293480 4.612010
189 2 -0.775722 6.548450 -4.419500
190 2 -0.775722 6.548450 -1.408990
191 2 -0.775722 6.548450 1.601520
192 2 -0.775722 6.548450 4.612030
193 2 -11.211500 -8.349010 -4.419470
194 2 -11.211500 -8.349010 -1.408960
195 2 -11.211500 -8.349010 1.601550
196 2 -11.211500 -8.349010 4.612060
197 2 -11.212400 -4.094090 -4.419480
198 2 -11.212400 -4.094090 -1.408970
199 2 -11.212400 -4.094090 1.601540
200 2 -11.212400 -4.094090 4.612050
201 2 -11.211500 0.165998 -4.419470
202 2 -11.211500 0.165998 -1.408960
203 2 -11.211500 0.165998 1.601550
204 2 -11.211500 0.165998 4.612060
205 2 -11.212400 4.420920 -4.419480
206 2 -11.212400 4.420920 -1.408970
207 2 -11.212400 4.420920 1.601540
208 2 -11.212400 4.420920 4.612050
209 2 -7.036090 -8.351910 -4.418050
210 2 -7.036090 -8.351910 -1.407540
211 2 -7.036090 -8.351910 1.602970
212 2 -7.036090 -8.351910 4.613480
213 2 -7.035660 -4.093800 -4.418020
214 2 -7.035660 -4.093800 -1.407510
215 2 -7.035660 -4.093800 1.603000
216 2 -7.035660 -4.093800 4.613510
217 2 -7.036090 0.163100 -4.418050
218 2 -7.036090 0.163100 -1.407540
219 2 -7.036090 0.163100 1.602970
220 2 -7.036090 0.163100 4.613480
221 2 -7.035660 4.421210 -4.418020
222 2 -7.035660 4.421210 -1.407510
223 2 -7.035660 4.421210 1.603000
224 2 -7.035660 4.421210 4.613510
225 2 -2.894020 -8.350680 -4.418670
226 2 -2.894020 -8.350680 -1.408160
227 2 -2.894020 -8.350680 1.602350
228 2 -2.894020 -8.350680 4.612860
229 2 -2.894590 -4.094400 -4.418660
230 2 -2.894590 -4.094400 -1.408150
231 2 -2.894590 -4.094400 1.602360
232 2 -2.894590 -4.094400 4.612870
233 2 -2.894020 0.164333 -4.418670
234 2 -2.894020 0.164333 -1.408160
235 2 -2.894020 0.164333 1.602350
236 2 -2.894020 0.164333 4.612860
237 2 -2.894590 4.420610 -4.418660
238 2 -2.894590 4.420610 -1.408150
239 2 -2.894590 4.420610 1.602360
240 2 -2.894590 4.420610 4.612870
241 2 1.243570 -8.350660 -4.421020
242 2 1.243570 -8.350660 -1.410510
243 2 1.243570 -8.350660 1.600000
244 2 1.243570 -8.350660 4.610510
245 2 1.243750 -4.091140 -4.421010
246 2 1.243750 -4.091140 -1.410500
247 2 1.243750 -4.091140 1.600010
248 2 1.243750 -4.091140 4.610520
249 2 1.243570 0.164353 -4.421020
250 2 1.243570 0.164353 -1.410510
251 2 1.243570 0.164353 1.600000
252 2 1.243570 0.164353 4.610510
253 2 1.243750 4.423870 -4.421010
254 2 1.243750 4.423870 -1.410500
255 2 1.243750 4.423870 1.600010
256 2 1.243750 4.423870 4.610520
257 3 -36.931600 -7.820190 -5.057520
258 3 -34.618500 -7.909490 -3.513600
259 3 -36.315700 -7.507090 0.466166
260 3 -36.277900 -6.847390 2.915240
261 3 -36.026600 -6.349390 5.322520
262 3 -36.792300 -3.338030 -4.863010
263 3 -36.993000 -4.097230 -2.486030
264 3 -36.707300 -2.777090 -0.445843
265 3 -36.910300 -2.808350 2.146970
266 3 -34.951300 -4.174360 5.611690
267 3 -36.957700 -0.992913 -5.089090
268 3 -36.939500 0.761086 -3.421020
269 3 -37.347900 1.307110 1.200880
270 3 -36.853800 -0.412842 2.989910
271 3 -35.828200 -0.060265 5.102660
272 3 -36.266600 2.491570 -5.403120
273 3 -37.184000 3.383040 -3.118890
274 3 -37.064200 3.795720 -0.314529
275 3 -36.857400 3.660900 2.319480
276 3 -35.662000 4.153260 5.027360
277 3 -35.362100 6.554810 5.512100
278 3 -35.977700 7.183010 -4.200070
279 3 -36.229600 7.997410 -1.518100
280 3 -36.887500 7.745410 2.055400
281 3 -36.683900 8.257610 4.430380
282 3 -32.310300 -8.072010 -4.754610
283 3 -32.052800 -7.779920 -2.352670
284 3 -31.946700 -7.298560 0.481166
285 3 -31.875500 -7.370400 3.127710
286 3 -30.402400 -8.311980 5.571490
287 3 -32.523300 -3.756110 -5.093750
288 3 -32.396800 -3.587270 -2.508810
289 3 -32.250200 -3.247690 -0.058048
290 3 -30.448100 -3.432870 3.281490
291 3 -30.335800 -4.103670 5.950350
292 3 -32.246600 0.182011 -5.690000
293 3 -32.140800 0.446055 -1.641570
294 3 -31.505100 -0.714899 0.412712
295 3 -31.056100 -0.712499 2.962820
296 3 -29.422400 0.121572 -5.692700
297 3 -30.884300 2.412570 -5.249400
298 3 -31.171500 2.987950 -2.660690
299 3 -31.392000 3.489460 -0.181490
300 3 -31.984800 3.731110 2.101960
301 3 -32.001000 3.362370 4.773690
302 3 -31.195400 6.558270 -5.713390
303 3 -31.435500 7.069150 -3.218450
304 3 -31.825100 7.443450 -0.709220
305 3 -32.162000 7.691600 1.771010
306 3 -32.705700 7.755030 4.731270
307 3 -27.896900 -8.327980 -5.702830
308 3 -27.770700 -7.501460 -2.046740
309 3 -27.273300 -7.756550 0.680641
310 3 -26.434200 -8.376890 4.505380
311 3 -25.192300 -7.851940 -5.600750
312 3 -27.677300 -4.608540 -4.683050
313 3 -26.360600 -5.068710 -2.265320
314 3 -26.466000 -4.770000 0.695499
315 3 -26.134800 -4.131590 3.234690
316 3 -25.763000 -3.543360 5.734750
317 3 -26.429600 -1.022690 -4.942860
318 3 -26.572600 -0.839771 -2.450540
319 3 -26.710500 -0.556755 0.042876
320 3 -26.672900 -0.167310 2.557110
321 3 -26.916000 0.505278 5.192140
322 3 -26.265400 3.018630 -5.471780
323 3 -26.578700 3.221120 -2.904100
324 3 -26.880100 3.449970 -0.440752
325 3 -26.733000 4.169930 2.021430
326 3 -27.652600 4.395270 4.549690
327 3 -26.191900 6.537320 -6.026460
328 3 -26.766800 7.444980 -3.692240
329 3 -26.812700 7.558610 -1.156000
330 3 -27.944900 8.113000 2.635430
331 3 -28.685300 6.729680 4.933240
332 3 -20.593900 -7.282490 -4.289240
333 3 -21.584500 -7.020030 -2.079710
334 3 -21.136800 -8.076420 0.619154
335 3 -20.977200 -7.694040 3.343710
336 3 -21.462100 -6.441730 5.700980
337 3 -22.184700 -5.161120 -4.089120
338 3 -21.824400 -4.349500 -1.542140
339 3 -21.469900 -3.760070 1.048270
340 3 -20.953100 -3.428020 3.348710
341 3 -21.613200 -3.887450 5.719650
342 3 -22.100700 -1.339610 -5.209660
343 3 -22.103300 -0.946263 -2.438770
344 3 -22.124800 -0.268278 0.066935
345 3 -22.349100 0.589502 2.506300
346 3 -22.383300 0.832208 5.143340
347 3 -21.901700 3.584780 -5.709630
348 3 -21.743300 3.147290 -3.184670
349 3 -22.068500 3.624570 -0.835147
350 3 -22.219700 4.256680 1.582150
351 3 -22.743500 4.980770 4.124410
352 3 -22.161200 6.126430 -5.577300
353 3 -21.819900 7.531020 -3.504320
354 3 -22.138600 7.521580 -1.171090
355 3 -22.512600 7.045910 2.266880
356 3 -21.399500 7.088930 4.413370
357 3 -38.166000 -5.518600 -5.370560
358 3 -38.068600 -6.368470 -3.005340
359 3 -37.919600 -5.336740 -0.333477
360 3 -37.888900 -5.119370 2.322120
361 3 -37.418600 -4.591740 4.573720
362 3 -38.863600 -2.810770 -5.881230
363 3 -37.904200 -1.635550 -2.714370
364 3 -38.322200 -1.027550 0.038285
365 3 -38.970000 -0.851593 2.298310
366 3 -36.751300 -2.367080 4.792200
367 3 -38.192100 1.239550 -5.859570
368 3 -39.147400 1.633750 -3.356280
369 3 -38.110800 1.524850 -1.183470
370 3 -38.759900 1.675540 3.148930
371 3 -38.048600 3.548420 4.885890
372 3 -37.131000 5.123250 -5.150180
373 3 -38.908200 5.717890 -3.562480
374 3 -38.283300 6.358530 -0.928091
375 3 -38.000200 5.686100 1.459480
376 3 -37.439500 5.763720 4.126930
377 3 -33.791400 -5.981340 -5.265420
378 3 -33.600700 -5.793190 -2.769430
379 3 -33.460100 -5.411100 -0.236350
380 3 -32.711300 -5.041250 2.151340
381 3 -31.751100 -6.273140 5.601550
382 3 -34.397300 -1.861440 -5.753080
383 3 -33.063000 -1.311070 -3.653350
384 3 -33.796200 -1.538070 -0.912289
385 3 -32.491500 -2.548920 2.410130
386 3 -31.990700 -2.141860 5.076040
387 3 -32.674200 1.453040 -3.742330
388 3 -33.290600 2.734480 -1.449870
389 3 -32.803100 1.580690 0.580545
390 3 -32.658100 1.539550 2.981380
391 3 -34.218800 1.715110 4.850210
392 3 -32.108200 4.564960 -4.718940
393 3 -32.592500 5.035310 -2.394400
394 3 -33.030300 5.437070 0.065886
395 3 -33.193100 5.786990 2.718830
396 3 -33.370500 5.286960 5.266270
397 3 -29.249400 -6.215890 -5.636730
398 3 -29.081900 -5.603250 -2.867160
399 3 -28.458900 -5.464860 -0.515065
400 3 -26.988700 -6.424130 2.758690
401 3 -26.563600 -5.929430 5.439050
402 3 -28.288100 -2.503860 -5.327190
403 3 -27.985600 -3.204860 -2.393630
404 3 -27.905400 -2.793250 0.148072
405 3 -27.962900 -2.381730 2.618280
406 3 -27.085100 -1.792740 4.735770
407 3 -27.481300 1.040020 -4.455920
408 3 -27.867700 1.187350 -1.999040
409 3 -27.974800 1.517040 0.479603
410 3 -28.085500 2.128410 2.841650
411 3 -28.579800 2.334300 5.460590
412 3 -27.706500 4.988800 -4.956030
413 3 -27.866800 5.362770 -2.486910
414 3 -28.250000 5.497210 -0.063970
415 3 -28.731800 5.700880 2.576680
416 3 -29.839200 4.558640 5.944370
417 3 -23.028500 -7.455710 -4.434090
418 3 -23.675600 -5.902240 -2.395380
419 3 -22.421700 -5.837350 0.459226
420 3 -22.264500 -5.520190 3.232000
421 3 -23.632700 -5.582280 5.777020
422 3 -23.617600 -3.193570 -5.101240
423 3 -23.754000 -3.296780 -2.703240
424 3 -23.253400 -2.523100 -0.253181
425 3 -22.957500 -2.042640 2.075200
426 3 -24.404900 -1.285170 5.638070
427 3 -24.835700 0.957957 -5.678320
428 3 -23.179600 1.337180 -2.044710
429 3 -23.341800 1.893240 0.387845
430 3 -23.832200 2.975950 2.798960
431 3 -23.795300 2.744370 5.271170
432 3 -24.114700 4.954360 -5.624520
433 3 -23.013800 5.315600 -2.922250
434 3 -23.274500 5.691960 -0.201088
435 3 -24.442100 5.643770 2.284060
436 3 -24.124200 7.004100 4.677960
437 3 -39.290500 -7.609640 -5.044530
438 3 -38.242200 -7.873590 -0.868002
439 3 -38.440800 -7.439640 1.618740
440 3 -38.390600 -7.173380 4.610850
441 3 -39.025500 -3.973310 -3.645010
442 3 -39.177200 -3.038460 -1.316560
443 3 -38.969400 -3.287630 1.067550
444 3 -39.073900 -2.973010 3.601900
445 3 -39.172600 -0.547734 -4.428920
446 3 -39.719300 -0.338390 -1.735690
447 3 -39.752100 0.882979 0.597520
448 3 -38.495900 -0.718916 4.827050
449 3 -38.919700 3.524760 -4.823230
450 3 -39.027700 4.029300 -1.718370
451 3 -38.991600 3.204750 0.940654
452 3 -39.295400 4.498580 3.059690
453 3 -38.143300 7.310080 -5.862620
454 3 -38.097400 7.965250 -3.160580
455 3 -39.416300 7.576440 0.891206
456 3 -38.936500 7.464560 3.347530
457 3 -34.543400 -8.232110 -6.010590
458 3 -34.015800 -7.790140 -0.966537
459 3 -34.175700 -6.955290 1.687980
460 3 -33.882000 -6.581700 4.194230
461 3 -34.554900 -3.734360 -3.869390
462 3 -34.683300 -3.767040 -1.436910
463 3 -34.474200 -3.120580 1.099710
464 3 -32.793800 -4.303510 4.478250
465 3 -34.739800 0.404557 -4.740090
466 3 -34.443100 0.420842 -2.268570
467 3 -33.522600 -0.545643 1.638350
468 3 -33.298300 -0.414972 4.179520
469 3 -33.655100 2.890010 -5.339150
470 3 -34.961400 4.390610 -1.623190
471 3 -34.571100 3.813170 0.908125
472 3 -34.233500 3.508190 3.274730
473 3 -33.468500 6.808290 -4.653640
474 3 -34.120400 6.899640 -2.089430
475 3 -34.382700 7.591910 0.714778
476 3 -34.526600 8.140350 3.240070
477 3 -29.791300 -7.820640 -3.749170
478 3 -29.858100 -7.476580 -0.856406
479 3 -29.527800 -7.102480 1.714070
480 3 -28.651800 -7.260450 4.251440
481 3 -30.149100 -3.575990 -3.663640
482 3 -29.990900 -3.534160 -1.123730
483 3 -28.551000 -4.682940 2.018400
484 3 -28.205900 -4.373970 4.576570
485 3 -28.706000 -1.107680 -3.477550
486 3 -29.024500 -0.895283 -1.018170
487 3 -29.027800 -0.452808 1.391820
488 3 -28.868300 0.090823 3.776880
489 3 -28.804100 2.982810 -4.036710
490 3 -29.054100 3.317730 -1.545860
491 3 -29.258900 3.596030 0.998090
492 3 -29.889200 3.633950 3.469170
493 3 -29.089800 6.974710 -4.552720
494 3 -29.176400 7.397910 -2.050840
495 3 -29.422400 7.595000 0.567301
496 3 -30.219200 7.784610 3.216130
497 3 -25.151600 -7.727930 -2.998130
498 3 -23.498400 -7.589890 -0.700656
499 3 -22.950100 -7.590320 2.038310
500 3 -23.085900 -7.865680 4.556280
501 3 -25.021100 -5.380810 -4.329090
502 3 -24.345600 -4.646800 -0.509770
503 3 -23.968000 -4.267920 1.897870
504 3 -23.598900 -3.645350 4.293610
505 3 -24.125000 -0.960340 -3.858180
506 3 -24.339700 -0.760143 -1.378670
507 3 -24.369900 -0.276343 1.114980
508 3 -24.391600 0.477938 3.736830
509 3 -24.001900 3.080740 -4.135590
510 3 -24.266800 3.479450 -1.748340
511 3 -24.680500 3.869560 0.644949
512 3 -25.202700 4.561400 4.361520
513 3 -24.068400 7.272820 -4.563230
514 3 -24.334700 7.240410 -2.157260
515 3 -24.647200 7.666760 0.335139
516 3 -25.105700 8.312220 2.606020
517 3 -35.989700 -5.739650 -4.174610
518 3 -35.896500 -6.241410 -1.667400
519 3 -35.871900 -5.083820 0.791241
520 3 -35.228600 -4.646830 3.157800
521 3 -35.543600 -1.702500 -3.037720
522 3 -36.435800 -0.249485 -1.119980
523 3 -35.732000 -0.932082 1.009100
524 3 -34.708900 -2.179130 3.565310
525 3 -34.951200 2.502360 -3.268500
526 3 -35.448900 1.938820 -0.417939
527 3 -34.995400 1.491250 2.042670
528 3 -36.503000 1.922710 3.924280
529 3 -34.883500 4.827020 -4.308780
530 3 -36.721400 5.682720 -2.520780
531 3 -35.932700 5.963930 0.043875
532 3 -35.581700 5.778400 2.706320
533 3 -31.382100 -5.699840 -4.035850
534 3 -31.253000 -5.521190 -1.515910
535 3 -30.726100 -5.146480 0.894682
536 3 -30.350500 -5.681880 3.746430
537 3 -30.879300 -1.622800 -4.828790
538 3 -31.093100 -1.603110 -2.120360
539 3 -30.151200 -2.585330 1.096300
540 3 -29.593300 -1.902270 4.839220
541 3 -30.143000 0.767830 -3.223720
542 3 -30.188100 1.344400 -0.574041
543 3 -30.439000 1.559690 1.840790
544 3 -30.897700 1.176890 4.588600
545 3 -30.054600 5.029510 -3.529420
546 3 -30.447100 5.454240 -1.164190
547 3 -30.780300 5.697010 1.363990
548 3 -31.117900 5.674450 3.957990
549 3 -27.100700 -6.856680 -4.158530
550 3 -25.769700 -6.858690 -0.873937
551 3 -24.919800 -6.545180 1.302990
552 3 -24.725300 -6.244710 3.733430
553 3 -25.946600 -3.031530 -3.824920
554 3 -25.813300 -2.833760 -1.253700
555 3 -25.546700 -2.491880 1.139590
556 3 -25.040400 -1.879790 3.403840
557 3 -25.323500 1.134740 -3.323570
558 3 -25.561700 1.419020 -0.901158
559 3 -25.750700 1.800750 1.545340
560 3 -26.047200 2.341940 4.021950
561 3 -25.479700 5.294240 -3.635380
562 3 -25.625100 5.461010 -1.172160
563 3 -26.673900 6.717840 1.143470
564 3 -26.484500 6.374340 3.543770
565 3 -20.043700 -5.310030 -3.035830
566 3 -20.182800 -5.816650 -0.587226
567 3 -20.234600 -5.778610 2.004690
568 3 -19.900100 -5.353260 4.382600
569 3 -21.186100 -3.025170 -3.553030
570 3 -20.852200 -2.268890 -0.808684
571 3 -20.737300 -1.247560 1.789450
572 3 -22.342000 -1.506340 4.304800
573 3 -22.730200 1.065580 -4.486410
574 3 -20.987700 1.405370 -1.276090
575 3 -21.072200 2.088250 1.103850
576 3 -21.557100 2.839830 3.670550
577 3 -20.632400 5.167650 -4.123840
578 3 -20.934600 5.479630 -1.795510
579 3 -20.915900 6.304020 0.657040
580 3 -20.650200 5.357290 2.960390

