LAMMPS Description

580 atoms
3 atom types
-48.42730 13.51500 xlo xhi
-8.51501 8.51501 ylo yhi
-6.02102 6.02102 zlo zhi


Atoms

1 1 -10.408000 -8.443830 -5.980590
2 1 -10.408000 -8.443830 -2.970080
3 1 -10.408000 -8.443830 0.040433
4 1 -10.408000 -8.443830 3.050940
5 1 -10.408300 -4.187810 -5.980580
6 1 -10.408300 -4.187810 -2.970070
7 1 -10.408300 -4.187810 0.040437
8 1 -10.408300 -4.187810 3.050950
9 1 -10.408000 0.071181 -5.980590
10 1 -10.408000 0.071181 -2.970080
11 1 -10.408000 0.071181 0.040433
12 1 -10.408000 0.071181 3.050940
13 1 -10.408300 4.327200 -5.980580
14 1 -10.408300 4.327200 -2.970070
15 1 -10.408300 4.327200 0.040437
16 1 -10.408300 4.327200 3.050950
17 1 -6.301710 -8.444780 -5.979650
18 1 -6.301710 -8.444780 -2.969140
19 1 -6.301710 -8.444780 0.041370
20 1 -6.301710 -8.444780 3.051880
21 1 -6.302810 -4.187520 -5.979650
22 1 -6.302810 -4.187520 -2.969140
23 1 -6.302810 -4.187520 0.041370
24 1 -6.302810 -4.187520 3.051880
25 1 -6.301710 0.070230 -5.979650
26 1 -6.301710 0.070230 -2.969140
27 1 -6.301710 0.070230 0.041370
28 1 -6.301710 0.070230 3.051880
29 1 -6.302810 4.327490 -5.979650
30 1 -6.302810 4.327490 -2.969140
31 1 -6.302810 4.327490 0.041370
32 1 -6.302810 4.327490 3.051880
33 1 -2.144270 -8.445150 -5.980090
34 1 -2.144270 -8.445150 -2.969580
35 1 -2.144270 -8.445150 0.040930
36 1 -2.144270 -8.445150 3.051440
37 1 -2.142860 -4.187960 -5.980100
38 1 -2.142860 -4.187960 -2.969590
39 1 -2.142860 -4.187960 0.040925
40 1 -2.142860 -4.187960 3.051430
41 1 -2.144270 0.069865 -5.980090
42 1 -2.144270 0.069865 -2.969580
43 1 -2.144270 0.069865 0.040930
44 1 -2.144270 0.069865 3.051440
45 1 -2.142860 4.327050 -5.980100
46 1 -2.142860 4.327050 -2.969590
47 1 -2.142860 4.327050 0.040925
48 1 -2.142860 4.327050 3.051430
49 1 1.969610 -8.444140 -5.981100
50 1 1.969610 -8.444140 -2.970590
51 1 1.969610 -8.444140 0.039917
52 1 1.969610 -8.444140 3.050430
53 1 1.970790 -4.188220 -5.981100
54 1 1.970790 -4.188220 -2.970590
55 1 1.970790 -4.188220 0.039919
56 1 1.970790 -4.188220 3.050430
57 1 1.969610 0.070871 -5.981100
58 1 1.969610 0.070871 -2.970590
59 1 1.969610 0.070871 0.039917
60 1 1.969610 0.070871 3.050430
61 1 1.970790 4.326790 -5.981100
62 1 1.970790 4.326790 -2.970590
63 1 1.970790 4.326790 0.039919
64 1 1.970790 4.326790 3.050430
65 1 -8.313460 -6.314800 -5.981100
66 1 -8.313460 -6.314800 -2.970590
67 1 -8.313460 -6.314800 0.039919
68 1 -8.313460 -6.314800 3.050430
69 1 -8.312270 -2.058890 -5.981100
70 1 -8.312270 -2.058890 -2.970590
71 1 -8.312270 -2.058890 0.039917
72 1 -8.312270 -2.058890 3.050430
73 1 -8.313460 2.200210 -5.981100
74 1 -8.313460 2.200210 -2.970590
75 1 -8.313460 2.200210 0.039919
76 1 -8.313460 2.200210 3.050430
77 1 -8.312270 6.456120 -5.981100
78 1 -8.312270 6.456120 -2.970590
79 1 -8.312270 6.456120 0.039917
80 1 -8.312270 6.456120 3.050430
81 1 -4.200830 -6.315250 -5.980090
82 1 -4.200830 -6.315250 -2.969580
83 1 -4.200830 -6.315250 0.040926
84 1 -4.200830 -6.315250 3.051440
85 1 -4.199420 -2.058060 -5.980090
86 1 -4.199420 -2.058060 -2.969580
87 1 -4.199420 -2.058060 0.040931
88 1 -4.199420 -2.058060 3.051440
89 1 -4.200830 2.199760 -5.980090
90 1 -4.200830 2.199760 -2.969580
91 1 -4.200830 2.199760 0.040926
92 1 -4.200830 2.199760 3.051440
93 1 -4.199420 6.456950 -5.980090
94 1 -4.199420 6.456950 -2.969580
95 1 -4.199420 6.456950 0.040931
96 1 -4.199420 6.456950 3.051440
97 1 -0.041354 -6.315600 -5.979650
98 1 -0.041354 -6.315600 -2.969140
99 1 -0.041354 -6.315600 0.041368
100 1 -0.041354 -6.315600 3.051880
101 1 -0.042448 -2.058340 -5.979650
102 1 -0.042448 -2.058340 -2.969140
103 1 -0.042448 -2.058340 0.041367
104 1 -0.042448 -2.058340 3.051880
105 1 -0.041354 2.199410 -5.979650
106 1 -0.041354 2.199410 -2.969140
107 1 -0.041354 2.199410 0.041368
108 1 -0.041354 2.199410 3.051880
109 1 -0.042448 6.456670 -5.979650
110 1 -0.042448 6.456670 -2.969140
111 1 -0.042448 6.456670 0.041367
112 1 -0.042448 6.456670 3.051880
113 1 4.061510 -6.315370 -5.980580
114 1 4.061510 -6.315370 -2.970070
115 1 4.061510 -6.315370 0.040442
116 1 4.061510 -6.315370 3.050950
117 1 4.061220 -2.059380 -5.980580
118 1 4.061220 -2.059380 -2.970070
119 1 4.061220 -2.059380 0.040438
120 1 4.061220 -2.059380 3.050950
121 1 4.061510 2.199640 -5.980580
122 1 4.061510 2.199640 -2.970070
123 1 4.061510 2.199640 0.040442
124 1 4.061510 2.199640 3.050950
125 1 4.061220 6.455630 -5.980580
126 1 4.061220 6.455630 -2.970070
127 1 4.061220 6.455630 0.040438
128 1 4.061220 6.455630 3.050950
129 2 -10.406700 -6.315530 -4.474700
130 2 -10.406700 -6.315530 -1.464190
131 2 -10.406700 -6.315530 1.546320
132 2 -10.406700 -6.315530 4.556830
133 2 -10.408600 -2.059350 -4.474700
134 2 -10.408600 -2.059350 -1.464190
135 2 -10.408600 -2.059350 1.546320
136 2 -10.408600 -2.059350 4.556830
137 2 -10.406700 2.199480 -4.474700
138 2 -10.406700 2.199480 -1.464190
139 2 -10.406700 2.199480 1.546320
140 2 -10.406700 2.199480 4.556830
141 2 -10.408600 6.455660 -4.474700
142 2 -10.408600 6.455660 -1.464190
143 2 -10.408600 6.455660 1.546320
144 2 -10.408600 6.455660 4.556830
145 2 -6.270240 -6.316440 -4.475690
146 2 -6.270240 -6.316440 -1.465180
147 2 -6.270240 -6.316440 1.545330
148 2 -6.270240 -6.316440 4.555840
149 2 -6.271540 -2.056910 -4.475680
150 2 -6.271540 -2.056910 -1.465170
151 2 -6.271540 -2.056910 1.545340
152 2 -6.271540 -2.056910 4.555850
153 2 -6.270240 2.198570 -4.475690
154 2 -6.270240 2.198570 -1.465180
155 2 -6.270240 2.198570 1.545330
156 2 -6.270240 2.198570 4.555840
157 2 -6.271540 6.458100 -4.475680
158 2 -6.271540 6.458100 -1.465170
159 2 -6.271540 6.458100 1.545340
160 2 -6.271540 6.458100 4.555850
161 2 -2.127770 -6.316200 -4.475950
162 2 -2.127770 -6.316200 -1.465440
163 2 -2.127770 -6.316200 1.545070
164 2 -2.127770 -6.316200 4.555580
165 2 -2.127530 -2.056340 -4.475940
166 2 -2.127530 -2.056340 -1.465430
167 2 -2.127530 -2.056340 1.545080
168 2 -2.127530 -2.056340 4.555590
169 2 -2.127770 2.198810 -4.475950
170 2 -2.127770 2.198810 -1.465440
171 2 -2.127770 2.198810 1.545070
172 2 -2.127770 2.198810 4.555580
173 2 -2.127530 6.458670 -4.475940
174 2 -2.127530 6.458670 -1.465430
175 2 -2.127530 6.458670 1.545080
176 2 -2.127530 6.458670 4.555590
177 2 2.048680 -6.314450 -4.475070
178 2 2.048680 -6.314450 -1.464560
179 2 2.048680 -6.314450 1.545950
180 2 2.048680 -6.314450 4.556460
181 2 2.049630 -2.059240 -4.475070
182 2 2.049630 -2.059240 -1.464560
183 2 2.049630 -2.059240 1.545950
184 2 2.049630 -2.059240 4.556460
185 2 2.048680 2.200560 -4.475070
186 2 2.048680 2.200560 -1.464560
187 2 2.048680 2.200560 1.545950
188 2 2.048680 2.200560 4.556460
189 2 2.049630 6.455770 -4.475070
190 2 2.049630 6.455770 -1.464560
191 2 2.049630 6.455770 1.545950
192 2 2.049630 6.455770 4.556460
193 2 -8.395050 -8.443810 -4.475070
194 2 -8.395050 -8.443810 -1.464560
195 2 -8.395050 -8.443810 1.545950
196 2 -8.395050 -8.443810 4.556460
197 2 -8.394120 -4.188630 -4.475070
198 2 -8.394120 -4.188630 -1.464560
199 2 -8.394120 -4.188630 1.545950
200 2 -8.394120 -4.188630 4.556460
201 2 -8.395050 0.071196 -4.475070
202 2 -8.395050 0.071196 -1.464560
203 2 -8.395050 0.071196 1.545950
204 2 -8.395050 0.071196 4.556460
205 2 -8.394120 4.326380 -4.475070
206 2 -8.394120 4.326380 -1.464560
207 2 -8.394120 4.326380 1.545950
208 2 -8.394120 4.326380 4.556460
209 2 -4.213260 -8.446850 -4.475940
210 2 -4.213260 -8.446850 -1.465430
211 2 -4.213260 -8.446850 1.545080
212 2 -4.213260 -8.446850 4.555590
213 2 -4.213020 -4.186990 -4.475950
214 2 -4.213020 -4.186990 -1.465440
215 2 -4.213020 -4.186990 1.545070
216 2 -4.213020 -4.186990 4.555580
217 2 -4.213260 0.068157 -4.475940
218 2 -4.213260 0.068157 -1.465430
219 2 -4.213260 0.068157 1.545080
220 2 -4.213260 0.068157 4.555590
221 2 -4.213020 4.328020 -4.475950
222 2 -4.213020 4.328020 -1.465440
223 2 -4.213020 4.328020 1.545070
224 2 -4.213020 4.328020 4.555580
225 2 -0.071244 -8.446220 -4.475690
226 2 -0.071244 -8.446220 -1.465180
227 2 -0.071244 -8.446220 1.545330
228 2 -0.071244 -8.446220 4.555840
229 2 -0.072539 -4.186690 -4.475690
230 2 -0.072539 -4.186690 -1.465180
231 2 -0.072539 -4.186690 1.545330
232 2 -0.072539 -4.186690 4.555840
233 2 -0.071244 0.068793 -4.475690
234 2 -0.071244 0.068793 -1.465180
235 2 -0.071244 0.068793 1.545330
236 2 -0.071244 0.068793 4.555840
237 2 -0.072539 4.328320 -4.475690
238 2 -0.072539 4.328320 -1.465180
239 2 -0.072539 4.328320 1.545330
240 2 -0.072539 4.328320 4.555840
241 2 4.065760 -8.443820 -4.474690
242 2 4.065760 -8.443820 -1.464180
243 2 4.065760 -8.443820 1.546330
244 2 4.065760 -8.443820 4.556840
245 2 4.063890 -4.187640 -4.474690
246 2 4.063890 -4.187640 -1.464180
247 2 4.063890 -4.187640 1.546330
248 2 4.063890 -4.187640 4.556840
249 2 4.065760 0.071188 -4.474690
250 2 4.065760 0.071188 -1.464180
251 2 4.065760 0.071188 1.546330
252 2 4.065760 0.071188 4.556840
253 2 4.063890 4.327370 -4.474690
254 2 4.063890 4.327370 -1.464180
255 2 4.063890 4.327370 1.546330
256 2 4.063890 4.327370 4.556840
257 3 -39.221000 -7.716990 -5.029530
258 3 -36.872000 -7.831970 -3.465430
259 3 -38.573300 -7.415350 0.484677
260 3 -38.555300 -6.767070 2.953660
261 3 -38.319700 -6.286640 5.344050
262 3 -39.090500 -3.257540 -4.805200
263 3 -39.273300 -4.045200 -2.431970
264 3 -38.986400 -2.731900 -0.394374
265 3 -39.225500 -2.711850 2.173600
266 3 -37.284400 -4.094520 5.666050
267 3 -39.251300 -0.913800 -5.046490
268 3 -39.227500 0.850152 -3.369340
269 3 -39.648100 1.386380 1.250060
270 3 -39.165400 -0.321634 3.037320
271 3 -38.125300 0.022201 5.157650
272 3 -38.542600 2.558750 -5.377740
273 3 -39.485100 3.493180 -3.082420
274 3 -39.323100 3.881170 -0.295948
275 3 -39.147200 3.739860 2.335840
276 3 -37.947900 4.234160 5.059420
277 3 -37.637800 6.634380 5.537740
278 3 -38.274100 7.292030 -4.159200
279 3 -38.491000 8.096170 -1.488780
280 3 -39.156800 7.832440 2.071000
281 3 -38.945400 8.322140 4.430040
282 3 -34.592200 -8.010330 -4.728200
283 3 -34.313000 -7.677430 -2.307420
284 3 -34.184000 -7.235760 0.520806
285 3 -34.152600 -7.287620 3.168770
286 3 -32.695500 -8.250240 5.597550
287 3 -34.831600 -3.681850 -5.030160
288 3 -34.695500 -3.524900 -2.458860
289 3 -34.542200 -3.187650 -0.002648
290 3 -32.756300 -3.367520 3.320470
291 3 -32.622000 -4.018710 6.006080
292 3 -34.514600 0.237864 -5.632080
293 3 -34.432900 0.531894 -1.639430
294 3 -33.786300 -0.659055 0.439730
295 3 -33.347900 -0.652331 2.998440
296 3 -31.676200 0.164791 -5.680400
297 3 -33.173000 2.469880 -5.220250
298 3 -33.433500 3.055180 -2.612510
299 3 -33.666700 3.547250 -0.124074
300 3 -34.283800 3.799280 2.144540
301 3 -34.299900 3.438940 4.784400
302 3 -33.488500 6.609170 -5.676750
303 3 -33.707900 7.162810 -3.189700
304 3 -34.110900 7.517390 -0.679153
305 3 -34.444400 7.767800 1.805630
306 3 -34.969500 7.834980 4.765730
307 3 -30.188700 -8.261140 -5.662670
308 3 -30.058000 -7.432880 -2.022750
309 3 -29.565200 -7.682110 0.736793
310 3 -28.721700 -8.307800 4.538310
311 3 -27.492300 -7.783810 -5.562000
312 3 -29.970800 -4.527420 -4.634140
313 3 -28.626600 -4.975550 -2.244180
314 3 -28.771600 -4.720030 0.707039
315 3 -28.407100 -4.061310 3.278190
316 3 -28.066100 -3.476370 5.790410
317 3 -28.698000 -0.950419 -4.919440
318 3 -28.840800 -0.756716 -2.408490
319 3 -28.996500 -0.480271 0.072256
320 3 -28.981400 -0.080787 2.608600
321 3 -29.185600 0.558584 5.218380
322 3 -28.536200 3.122680 -5.420290
323 3 -28.863800 3.307860 -2.856560
324 3 -29.145300 3.522920 -0.418775
325 3 -29.034900 4.229260 2.102020
326 3 -29.945700 4.469930 4.627390
327 3 -28.492900 6.621850 -5.958310
328 3 -29.063000 7.521330 -3.655100
329 3 -29.083200 7.641200 -1.110270
330 3 -30.221300 8.174910 2.680880
331 3 -30.984700 6.804650 4.990520
332 3 -22.886100 -7.228740 -4.229540
333 3 -23.860200 -6.931140 -2.016200
334 3 -23.396200 -7.955860 0.678585
335 3 -23.242600 -7.612150 3.405780
336 3 -23.755500 -6.344240 5.735720
337 3 -24.477800 -5.094560 -4.044250
338 3 -24.111900 -4.270470 -1.505210
339 3 -23.717800 -3.670320 1.089620
340 3 -23.247600 -3.318900 3.392250
341 3 -23.905100 -3.797720 5.769140
342 3 -24.378800 -1.233260 -5.163890
343 3 -24.408900 -0.893721 -2.375580
344 3 -24.410600 -0.192489 0.138611
345 3 -24.662700 0.670163 2.549690
346 3 -24.653700 0.887714 5.211870
347 3 -24.155600 3.685970 -5.610050
348 3 -24.039700 3.261300 -3.111600
349 3 -24.370000 3.645550 -0.760060
350 3 -24.502500 4.351260 1.660980
351 3 -25.004000 5.073500 4.161270
352 3 -24.432800 6.202970 -5.502170
353 3 -24.113700 7.608530 -3.422410
354 3 -24.418000 7.601400 -1.086530
355 3 -24.799900 7.137920 2.347840
356 3 -23.693000 7.175390 4.491170
357 3 -40.448000 -5.452930 -5.349060
358 3 -40.386400 -6.271620 -2.949920
359 3 -40.201000 -5.246380 -0.313802
360 3 -40.166700 -5.034230 2.354260
361 3 -39.715400 -4.504580 4.598060
362 3 -41.165400 -2.733570 -5.845210
363 3 -40.189400 -1.592100 -2.706650
364 3 -40.590100 -0.959519 0.105123
365 3 -41.300600 -0.780493 2.365980
366 3 -39.069200 -2.287960 4.816130
367 3 -40.458700 1.307870 -5.814880
368 3 -41.449500 1.707460 -3.314090
369 3 -40.389200 1.611940 -1.129290
370 3 -41.051300 1.751170 3.192070
371 3 -40.337600 3.628330 4.903630
372 3 -39.420200 5.200470 -5.129470
373 3 -41.188200 5.786320 -3.530820
374 3 -40.570600 6.446730 -0.903838
375 3 -40.264300 5.776170 1.463050
376 3 -39.723800 5.829780 4.166710
377 3 -36.089800 -5.888160 -5.209980
378 3 -35.870900 -5.735430 -2.741190
379 3 -35.727100 -5.343270 -0.188780
380 3 -35.001500 -4.965150 2.205180
381 3 -34.049700 -6.194370 5.659440
382 3 -36.687100 -1.774790 -5.698790
383 3 -35.341800 -1.228470 -3.599420
384 3 -36.062000 -1.459340 -0.875590
385 3 -34.800100 -2.484320 2.449840
386 3 -34.286800 -2.077010 5.118580
387 3 -34.986300 1.560460 -3.715520
388 3 -35.575700 2.822990 -1.416970
389 3 -35.100900 1.638000 0.593853
390 3 -34.953000 1.613670 3.005910
391 3 -36.511300 1.785950 4.883750
392 3 -34.396100 4.634850 -4.676070
393 3 -34.856500 5.133580 -2.359770
394 3 -35.326900 5.535400 0.090104
395 3 -35.492600 5.867660 2.731790
396 3 -35.633200 5.382010 5.273420
397 3 -31.551800 -6.128740 -5.583240
398 3 -31.354200 -5.526900 -2.825600
399 3 -30.758300 -5.370670 -0.472196
400 3 -29.291500 -6.353620 2.816990
401 3 -28.849800 -5.854920 5.479130
402 3 -30.573400 -2.433770 -5.290190
403 3 -30.249000 -3.099600 -2.359630
404 3 -30.203100 -2.731500 0.180496
405 3 -30.278900 -2.307350 2.664570
406 3 -29.360600 -1.753370 4.769150
407 3 -29.762300 1.122600 -4.407450
408 3 -30.174000 1.274610 -1.961310
409 3 -30.271200 1.585800 0.522444
410 3 -30.386200 2.225240 2.881340
411 3 -30.862800 2.361580 5.484640
412 3 -29.988500 5.059700 -4.886700
413 3 -30.165300 5.431880 -2.441830
414 3 -30.526400 5.565410 -0.016188
415 3 -31.033200 5.749180 2.630130
416 3 -32.134200 4.631370 5.997130
417 3 -25.311400 -7.365410 -4.407880
418 3 -25.970200 -5.816820 -2.353500
419 3 -24.709600 -5.737860 0.526970
420 3 -24.547300 -5.447010 3.328770
421 3 -25.939200 -5.482040 5.814290
422 3 -25.889300 -3.105390 -5.059180
423 3 -26.070500 -3.241630 -2.639790
424 3 -25.533300 -2.470050 -0.199343
425 3 -25.247300 -1.972620 2.104660
426 3 -26.688600 -1.187540 5.689240
427 3 -27.118800 1.042050 -5.629170
428 3 -25.449400 1.383590 -1.995040
429 3 -25.665200 1.961610 0.466569
430 3 -26.133300 3.051630 2.865990
431 3 -26.054100 2.832800 5.334950
432 3 -26.379900 5.036410 -5.543280
433 3 -25.323600 5.392570 -2.813990
434 3 -25.544100 5.774430 -0.139204
435 3 -26.706400 5.725350 2.376970
436 3 -26.403100 7.069270 4.749680
437 3 -41.570300 -7.548770 -5.015490
438 3 -40.510700 -7.818760 -0.855602
439 3 -40.705000 -7.362920 1.646440
440 3 -40.666200 -7.147280 4.634530
441 3 -41.295500 -3.940800 -3.586520
442 3 -41.485700 -2.948050 -1.288010
443 3 -41.257900 -3.221350 1.093420
444 3 -41.380800 -2.903990 3.664290
445 3 -41.465700 -0.469043 -4.388310
446 3 -41.963900 -0.282536 -1.696060
447 3 -42.020900 0.954765 0.673638
448 3 -40.791400 -0.640179 4.882930
449 3 -41.172200 3.582100 -4.787760
450 3 -41.309700 4.101230 -1.692370
451 3 -41.264000 3.300690 0.972476
452 3 -41.583400 4.589020 3.075400
453 3 -40.428100 7.378120 -5.864420
454 3 -40.379600 8.038330 -3.149330
455 3 -41.682500 7.652670 0.892129
456 3 -41.182500 7.541530 3.364090
457 3 -36.840400 -8.149020 -5.994710
458 3 -36.274800 -7.685920 -0.885928
459 3 -36.442300 -6.898040 1.726110
460 3 -36.146500 -6.491140 4.245510
461 3 -36.862600 -3.656280 -3.824660
462 3 -36.965400 -3.693560 -1.361500
463 3 -36.791100 -3.034700 1.132090
464 3 -35.110300 -4.225370 4.548570
465 3 -37.037000 0.487011 -4.690410
466 3 -36.730300 0.521599 -2.232380
467 3 -35.801700 -0.456739 1.700490
468 3 -35.581000 -0.343057 4.248550
469 3 -35.963900 2.974660 -5.316110
470 3 -37.248100 4.463180 -1.597960
471 3 -36.844700 3.884140 0.948916
472 3 -36.531000 3.583150 3.306620
473 3 -35.755000 6.877290 -4.594200
474 3 -36.401400 6.960070 -2.053500
475 3 -36.664800 7.673710 0.745167
476 3 -36.780000 8.227390 3.259980
477 3 -32.092800 -7.733130 -3.724490
478 3 -32.130300 -7.397330 -0.846384
479 3 -31.775900 -7.020740 1.734140
480 3 -30.952400 -7.199660 4.292450
481 3 -32.432300 -3.512910 -3.616440
482 3 -32.254700 -3.458850 -1.066460
483 3 -30.834500 -4.615120 2.056020
484 3 -30.510700 -4.302020 4.624830
485 3 -30.988900 -1.036360 -3.461770
486 3 -31.312600 -0.801177 -0.991098
487 3 -31.306700 -0.394025 1.397430
488 3 -31.147100 0.151668 3.808920
489 3 -31.095700 3.055430 -3.996490
490 3 -31.324500 3.397360 -1.509100
491 3 -31.545700 3.663800 1.027650
492 3 -32.195400 3.677790 3.517140
493 3 -31.382600 7.039040 -4.540230
494 3 -31.477100 7.466080 -2.010660
495 3 -31.733900 7.671700 0.598059
496 3 -32.517200 7.861610 3.249480
497 3 -27.461000 -7.648060 -2.965470
498 3 -25.792100 -7.494270 -0.666762
499 3 -25.220500 -7.508330 2.089650
500 3 -25.388600 -7.779230 4.596560
501 3 -27.331400 -5.292810 -4.296240
502 3 -26.621300 -4.590170 -0.468960
503 3 -26.231600 -4.203650 1.940630
504 3 -25.901500 -3.540940 4.330720
505 3 -26.430900 -0.869364 -3.791940
506 3 -26.635700 -0.684403 -1.324390
507 3 -26.673500 -0.202363 1.189130
508 3 -26.714900 0.567187 3.773200
509 3 -26.286100 3.160580 -4.069470
510 3 -26.564000 3.527820 -1.692770
511 3 -26.978100 3.967110 0.703067
512 3 -27.466000 4.630340 4.439120
513 3 -26.359900 7.325620 -4.505530
514 3 -26.620000 7.350830 -2.114580
515 3 -26.904500 7.757380 0.376529
516 3 -27.374600 8.399080 2.648540
517 3 -38.298600 -5.656300 -4.127760
518 3 -38.155300 -6.161530 -1.635520
519 3 -38.151500 -5.014440 0.809445
520 3 -37.522700 -4.568590 3.202180
521 3 -37.823200 -1.616510 -2.983440
522 3 -38.716200 -0.197721 -1.090920
523 3 -38.010900 -0.851237 1.072520
524 3 -37.001400 -2.106230 3.612540
525 3 -37.261100 2.595320 -3.236620
526 3 -37.739700 2.013900 -0.391969
527 3 -37.291900 1.566410 2.045580
528 3 -38.800500 1.999040 3.968820
529 3 -37.166300 4.878540 -4.269930
530 3 -39.006800 5.775360 -2.501550
531 3 -38.228800 6.048970 0.065657
532 3 -37.865500 5.865850 2.762170
533 3 -33.668800 -5.647240 -3.983760
534 3 -33.510100 -5.442660 -1.449890
535 3 -33.009800 -5.080300 0.956815
536 3 -32.640900 -5.601640 3.799580
537 3 -33.173800 -1.558700 -4.777570
538 3 -33.382300 -1.548050 -2.068190
539 3 -32.447400 -2.507910 1.144810
540 3 -31.881000 -1.853500 4.860600
541 3 -32.450900 0.817447 -3.250510
542 3 -32.487200 1.409690 -0.526939
543 3 -32.755100 1.610950 1.880040
544 3 -33.182500 1.249550 4.641540
545 3 -32.343300 5.108430 -3.486850
546 3 -32.732300 5.514590 -1.109860
547 3 -33.074700 5.761550 1.376270
548 3 -33.406200 5.746950 4.015190
549 3 -29.386200 -6.780230 -4.134790
550 3 -28.067100 -6.779580 -0.842170
551 3 -27.220600 -6.477400 1.342060
552 3 -27.002900 -6.159590 3.759580
553 3 -28.214100 -2.953430 -3.795250
554 3 -28.095200 -2.754910 -1.174370
555 3 -27.841300 -2.452360 1.196360
556 3 -27.314400 -1.797960 3.445600
557 3 -27.599700 1.230010 -3.274870
558 3 -27.845900 1.474060 -0.841339
559 3 -28.036500 1.880020 1.616630
560 3 -28.342800 2.426210 4.086030
561 3 -27.779300 5.358620 -3.595640
562 3 -27.890800 5.546990 -1.144420
563 3 -28.949900 6.785930 1.206310
564 3 -28.766100 6.447830 3.628940
565 3 -22.330100 -5.237340 -2.985720
566 3 -22.465700 -5.688120 -0.521207
567 3 -22.525900 -5.668930 2.047230
568 3 -22.175500 -5.262560 4.415320
569 3 -23.471900 -2.947850 -3.518780
570 3 -23.109300 -2.172580 -0.754288
571 3 -23.020600 -1.136390 1.861840
572 3 -24.633000 -1.433800 4.355080
573 3 -25.000700 1.133230 -4.415080
574 3 -23.240500 1.451580 -1.214710
575 3 -23.373500 2.150360 1.192760
576 3 -23.828800 2.915230 3.727550
577 3 -22.906600 5.271050 -4.017440
578 3 -23.244000 5.533040 -1.673220
579 3 -23.170400 6.422410 0.781798
580 3 -22.900900 5.442640 3.034750

