LAMMPS Description

224 atoms
3 atom types
-16.48630 13.85681 xlo xhi
0.00000 14.83260 ylo yhi
0.00000 10.48820 zlo zhi


Atoms

1 1 0.000000 4.237875 2.996630
2 1 0.000000 4.237875 5.993260
3 1 0.000000 4.237875 8.989890
4 1 0.000000 4.237875 11.986520
5 1 0.000000 8.475749 2.996630
6 1 0.000000 8.475749 5.993260
7 1 0.000000 8.475749 8.989890
8 1 0.000000 8.475749 11.986520
9 1 0.000000 12.713624 2.996630
10 1 0.000000 12.713624 5.993260
11 1 0.000000 12.713624 8.989890
12 1 0.000000 12.713624 11.986520
13 1 4.237875 4.237875 2.996630
14 1 4.237875 4.237875 5.993260
15 1 4.237875 4.237875 8.989890
16 1 4.237875 4.237875 11.986520
17 1 4.237875 8.475749 2.996630
18 1 4.237875 8.475749 5.993260
19 1 4.237875 8.475749 8.989890
20 1 4.237875 8.475749 11.986520
21 1 4.237875 12.713624 2.996630
22 1 4.237875 12.713624 5.993260
23 1 4.237875 12.713624 8.989890
24 1 4.237875 12.713624 11.986520
25 1 2.118937 2.118937 2.996630
26 1 2.118937 2.118937 5.993260
27 1 2.118937 2.118937 8.989890
28 1 2.118937 2.118937 11.986520
29 1 2.118937 6.356812 2.996630
30 1 2.118937 6.356812 5.993260
31 1 2.118937 6.356812 8.989890
32 1 2.118937 6.356812 11.986520
33 1 2.118937 10.594686 2.996630
34 1 2.118937 10.594686 5.993260
35 1 2.118937 10.594686 8.989890
36 1 2.118937 10.594686 11.986520
37 1 2.118937 14.832561 2.996630
38 1 2.118937 14.832561 5.993260
39 1 2.118937 14.832561 8.989890
40 1 2.118937 14.832561 11.986520
41 1 6.356812 2.118937 2.996630
42 1 6.356812 2.118937 5.993260
43 1 6.356812 2.118937 8.989890
44 1 6.356812 2.118937 11.986520
45 1 6.356812 6.356812 2.996630
46 1 6.356812 6.356812 5.993260
47 1 6.356812 6.356812 8.989890
48 1 6.356812 6.356812 11.986520
49 1 6.356812 10.594686 2.996630
50 1 6.356812 10.594686 5.993260
51 1 6.356812 10.594686 8.989890
52 1 6.356812 10.594686 11.986520
53 1 6.356812 14.832561 2.996630
54 1 6.356812 14.832561 5.993260
55 1 6.356812 14.832561 8.989890
56 1 6.356812 14.832561 11.986520
57 2 2.118937 4.237875 1.498315
58 2 2.118937 4.237875 4.494945
59 2 2.118937 4.237875 7.491575
60 2 2.118937 4.237875 10.488205
61 2 2.118937 8.475749 1.498315
62 2 2.118937 8.475749 4.494945
63 2 2.118937 8.475749 7.491575
64 2 2.118937 8.475749 10.488205
65 2 2.118937 12.713624 1.498315
66 2 2.118937 12.713624 4.494945
67 2 2.118937 12.713624 7.491575
68 2 2.118937 12.713624 10.488205
69 2 6.356812 4.237875 1.498315
70 2 6.356812 4.237875 4.494945
71 2 6.356812 4.237875 7.491575
72 2 6.356812 4.237875 10.488205
73 2 6.356812 8.475749 1.498315
74 2 6.356812 8.475749 4.494945
75 2 6.356812 8.475749 7.491575
76 2 6.356812 8.475749 10.488205
77 2 6.356812 12.713624 1.498315
78 2 6.356812 12.713624 4.494945
79 2 6.356812 12.713624 7.491575
80 2 6.356812 12.713624 10.488205
81 2 0.000000 2.118937 1.498315
82 2 0.000000 2.118937 4.494945
83 2 0.000000 2.118937 7.491575
84 2 0.000000 2.118937 10.488205
85 2 0.000000 6.356812 1.498315
86 2 0.000000 6.356812 4.494945
87 2 0.000000 6.356812 7.491575
88 2 0.000000 6.356812 10.488205
89 2 0.000000 10.594686 1.498315
90 2 0.000000 10.594686 4.494945
91 2 0.000000 10.594686 7.491575
92 2 0.000000 10.594686 10.488205
93 2 0.000000 14.832561 1.498315
94 2 0.000000 14.832561 4.494945
95 2 0.000000 14.832561 7.491575
96 2 0.000000 14.832561 10.488205
97 2 4.237875 2.118937 1.498315
98 2 4.237875 2.118937 4.494945
99 2 4.237875 2.118937 7.491575
100 2 4.237875 2.118937 10.488205
101 2 4.237875 6.356812 1.498315
102 2 4.237875 6.356812 4.494945
103 2 4.237875 6.356812 7.491575
104 2 4.237875 6.356812 10.488205
105 2 4.237875 10.594686 1.498315
106 2 4.237875 10.594686 4.494945
107 2 4.237875 10.594686 7.491575
108 2 4.237875 10.594686 10.488205
109 2 4.237875 14.832561 1.498315
110 2 4.237875 14.832561 4.494945
111 2 4.237875 14.832561 7.491575
112 2 4.237875 14.832561 10.488205
113 3 -21.972602 2.013698 2.847800
114 3 -21.972602 2.013698 5.695600
115 3 -21.972602 2.013698 8.543400
116 3 -21.972602 2.013698 11.391200
117 3 -21.972602 6.041095 2.847800
118 3 -21.972602 6.041095 5.695600
119 3 -21.972602 6.041095 8.543400
120 3 -21.972602 6.041095 11.391200
121 3 -21.972602 10.068493 2.847800
122 3 -21.972602 10.068493 5.695600
123 3 -21.972602 10.068493 8.543400
124 3 -21.972602 10.068493 11.391200
125 3 -21.972602 14.095891 2.847800
126 3 -21.972602 14.095891 5.695600
127 3 -21.972602 14.095891 8.543400
128 3 -21.972602 14.095891 11.391200
129 3 -17.945205 2.013698 2.847800
130 3 -17.945205 2.013698 5.695600
131 3 -17.945205 2.013698 8.543400
132 3 -17.945205 2.013698 11.391200
133 3 -17.945205 6.041095 2.847800
134 3 -17.945205 6.041095 5.695600
135 3 -17.945205 6.041095 8.543400
136 3 -17.945205 6.041095 11.391200
137 3 -17.945205 10.068493 2.847800
138 3 -17.945205 10.068493 5.695600
139 3 -17.945205 10.068493 8.543400
140 3 -17.945205 10.068493 11.391200
141 3 -17.945205 14.095891 2.847800
142 3 -17.945205 14.095891 5.695600
143 3 -17.945205 14.095891 8.543400
144 3 -17.945205 14.095891 11.391200
145 3 -23.986301 2.013698 1.423900
146 3 -23.986301 2.013698 4.271700
147 3 -23.986301 2.013698 7.119500
148 3 -23.986301 2.013698 9.967300
149 3 -23.986301 6.041095 1.423900
150 3 -23.986301 6.041095 4.271700
151 3 -23.986301 6.041095 7.119500
152 3 -23.986301 6.041095 9.967300
153 3 -23.986301 10.068493 1.423900
154 3 -23.986301 10.068493 4.271700
155 3 -23.986301 10.068493 7.119500
156 3 -23.986301 10.068493 9.967300
157 3 -23.986301 14.095891 1.423900
158 3 -23.986301 14.095891 4.271700
159 3 -23.986301 14.095891 7.119500
160 3 -23.986301 14.095891 9.967300
161 3 -19.958904 2.013698 1.423900
162 3 -19.958904 2.013698 4.271700
163 3 -19.958904 2.013698 7.119500
164 3 -19.958904 2.013698 9.967300
165 3 -19.958904 6.041095 1.423900
166 3 -19.958904 6.041095 4.271700
167 3 -19.958904 6.041095 7.119500
168 3 -19.958904 6.041095 9.967300
169 3 -19.958904 10.068493 1.423900
170 3 -19.958904 10.068493 4.271700
171 3 -19.958904 10.068493 7.119500
172 3 -19.958904 10.068493 9.967300
173 3 -19.958904 14.095891 1.423900
174 3 -19.958904 14.095891 4.271700
175 3 -19.958904 14.095891 7.119500
176 3 -19.958904 14.095891 9.967300
177 3 -23.986301 4.027396 2.847800
178 3 -23.986301 4.027396 5.695600
179 3 -23.986301 4.027396 8.543400
180 3 -23.986301 4.027396 11.391200
181 3 -23.986301 8.054794 2.847800
182 3 -23.986301 8.054794 5.695600
183 3 -23.986301 8.054794 8.543400
184 3 -23.986301 8.054794 11.391200
185 3 -23.986301 12.082192 2.847800
186 3 -23.986301 12.082192 5.695600
187 3 -23.986301 12.082192 8.543400
188 3 -23.986301 12.082192 11.391200
189 3 -19.958904 4.027396 2.847800
190 3 -19.958904 4.027396 5.695600
191 3 -19.958904 4.027396 8.543400
192 3 -19.958904 4.027396 11.391200
193 3 -19.958904 8.054794 2.847800
194 3 -19.958904 8.054794 5.695600
195 3 -19.958904 8.054794 8.543400
196 3 -19.958904 8.054794 11.391200
197 3 -19.958904 12.082192 2.847800
198 3 -19.958904 12.082192 5.695600
199 3 -19.958904 12.082192 8.543400
200 3 -19.958904 12.082192 11.391200
201 3 -21.972602 4.027396 1.423900
202 3 -21.972602 4.027396 4.271700
203 3 -21.972602 4.027396 7.119500
204 3 -21.972602 4.027396 9.967300
205 3 -21.972602 8.054794 1.423900
206 3 -21.972602 8.054794 4.271700
207 3 -21.972602 8.054794 7.119500
208 3 -21.972602 8.054794 9.967300
209 3 -21.972602 12.082192 1.423900
210 3 -21.972602 12.082192 4.271700
211 3 -21.972602 12.082192 7.119500
212 3 -21.972602 12.082192 9.967300
213 3 -17.945205 4.027396 1.423900
214 3 -17.945205 4.027396 4.271700
215 3 -17.945205 4.027396 7.119500
216 3 -17.945205 4.027396 9.967300
217 3 -17.945205 8.054794 1.423900
218 3 -17.945205 8.054794 4.271700
219 3 -17.945205 8.054794 7.119500
220 3 -17.945205 8.054794 9.967300
221 3 -17.945205 12.082192 1.423900
222 3 -17.945205 12.082192 4.271700
223 3 -17.945205 12.082192 7.119500
224 3 -17.945205 12.082192 9.967300

